# vtk DataFile Version 2.0
3D Data
ASCII
DATASET UNSTRUCTURED_GRID
POINTS 7674 double 
-1.678e+06 1.7235e+06 -508.054
-1.679e+06 1.724e+06 -505.218
-1.6785e+06 1.724e+06 -506.9
-1.678e+06 1.724e+06 -507.336
-1.6775e+06 1.724e+06 -507.273
-1.677e+06 1.724e+06 -507.066
-1.6765e+06 1.724e+06 -506.891
-1.676e+06 1.724e+06 -507.022
-1.6755e+06 1.724e+06 -507.444
-1.675e+06 1.724e+06 -508.004
-1.674e+06 1.724e+06 -508.536
-1.673e+06 1.724e+06 -507.881
-1.6705e+06 1.724e+06 -501.129
-1.6695e+06 1.724e+06 -498.513
-1.681e+06 1.7245e+06 -497.608
-1.6805e+06 1.7245e+06 -495.107
-1.68e+06 1.7245e+06 -498.505
-1.6795e+06 1.7245e+06 -501.758
-1.679e+06 1.7245e+06 -503.92
-1.6785e+06 1.7245e+06 -506.024
-1.678e+06 1.7245e+06 -507.045
-1.6775e+06 1.7245e+06 -506.393
-1.677e+06 1.7245e+06 -505.921
-1.6765e+06 1.7245e+06 -505.437
-1.676e+06 1.7245e+06 -505.905
-1.6755e+06 1.7245e+06 -506.795
-1.675e+06 1.7245e+06 -507.635
-1.6745e+06 1.7245e+06 -508.27
-1.674e+06 1.7245e+06 -508.342
-1.6735e+06 1.7245e+06 -508.199
-1.673e+06 1.7245e+06 -507.827
-1.6725e+06 1.7245e+06 -507.16
-1.6715e+06 1.7245e+06 -504.267
-1.671e+06 1.7245e+06 -502.328
-1.6705e+06 1.7245e+06 -500.711
-1.67e+06 1.7245e+06 -499.253
-1.6695e+06 1.7245e+06 -497.96
-1.669e+06 1.7245e+06 -497.366
-1.6685e+06 1.7245e+06 -497.18
-1.668e+06 1.7245e+06 -497.402
-1.667e+06 1.7245e+06 -497.607
-1.6825e+06 1.725e+06 -475.19
-1.682e+06 1.725e+06 -495.693
-1.6815e+06 1.725e+06 -497.31
-1.681e+06 1.725e+06 -497.254
-1.6805e+06 1.725e+06 -497.158
-1.68e+06 1.725e+06 -498.906
-1.6795e+06 1.725e+06 -501.083
-1.679e+06 1.725e+06 -503.207
-1.6785e+06 1.725e+06 -505.184
-1.678e+06 1.725e+06 -506.457
-1.6775e+06 1.725e+06 -505.385
-1.677e+06 1.725e+06 -505.246
-1.6765e+06 1.725e+06 -504.056
-1.676e+06 1.725e+06 -504.769
-1.6755e+06 1.725e+06 -506.174
-1.675e+06 1.725e+06 -506.659
-1.6745e+06 1.725e+06 -507.198
-1.674e+06 1.725e+06 -507.432
-1.6735e+06 1.725e+06 -507.555
-1.673e+06 1.725e+06 -507.511
-1.6725e+06 1.725e+06 -507.189
-1.672e+06 1.725e+06 -506.117
-1.6715e+06 1.725e+06 -503.972
-1.671e+06 1.725e+06 -501.746
-1.6705e+06 1.725e+06 -500.183
-1.67e+06 1.725e+06 -499.007
-1.6695e+06 1.725e+06 -497.719
-1.669e+06 1.725e+06 -497.096
-1.6685e+06 1.725e+06 -497.763
-1.668e+06 1.725e+06 -498.292
-1.6675e+06 1.725e+06 -498.359
-1.667e+06 1.725e+06 -498.201
-1.6665e+06 1.725e+06 -498.439
-1.6835e+06 1.7255e+06 -486.907
-1.683e+06 1.7255e+06 -488.965
-1.6825e+06 1.7255e+06 -495.054
-1.682e+06 1.7255e+06 -497.03
-1.6815e+06 1.7255e+06 -497.708
-1.681e+06 1.7255e+06 -496.797
-1.6805e+06 1.7255e+06 -496.581
-1.68e+06 1.7255e+06 -498.037
-1.6795e+06 1.7255e+06 -500.673
-1.679e+06 1.7255e+06 -503.212
-1.6785e+06 1.7255e+06 -505.101
-1.678e+06 1.7255e+06 -505.957
-1.6775e+06 1.7255e+06 -505.451
-1.677e+06 1.7255e+06 -504.425
-1.6765e+06 1.7255e+06 -503.07
-1.676e+06 1.7255e+06 -503.179
-1.6755e+06 1.7255e+06 -504.385
-1.675e+06 1.7255e+06 -504.041
-1.6745e+06 1.7255e+06 -502.776
-1.674e+06 1.7255e+06 -504.486
-1.6735e+06 1.7255e+06 -506.034
-1.673e+06 1.7255e+06 -506.602
-1.6725e+06 1.7255e+06 -506.695
-1.672e+06 1.7255e+06 -505.796
-1.6715e+06 1.7255e+06 -503.639
-1.671e+06 1.7255e+06 -501.089
-1.6705e+06 1.7255e+06 -499.299
-1.67e+06 1.7255e+06 -498.723
-1.6695e+06 1.7255e+06 -498.024
-1.669e+06 1.7255e+06 -497.372
-1.6685e+06 1.7255e+06 -499.338
-1.668e+06 1.7255e+06 -499.521
-1.6675e+06 1.7255e+06 -499.178
-1.6835e+06 1.726e+06 -494.483
-1.683e+06 1.726e+06 -495.83
-1.6825e+06 1.726e+06 -496.67
-1.682e+06 1.726e+06 -497.726
-1.6815e+06 1.726e+06 -497.445
-1.681e+06 1.726e+06 -496.024
-1.6805e+06 1.726e+06 -495.263
-1.68e+06 1.726e+06 -496.687
-1.6795e+06 1.726e+06 -499.988
-1.679e+06 1.726e+06 -503.039
-1.6785e+06 1.726e+06 -505.084
-1.678e+06 1.726e+06 -505.744
-1.6775e+06 1.726e+06 -505.142
-1.677e+06 1.726e+06 -503.928
-1.6765e+06 1.726e+06 -502.912
-1.676e+06 1.726e+06 -502.386
-1.6755e+06 1.726e+06 -502.2
-1.675e+06 1.726e+06 -501.121
-1.6745e+06 1.726e+06 -500.602
-1.674e+06 1.726e+06 -502.055
-1.6735e+06 1.726e+06 -504.437
-1.673e+06 1.726e+06 -505.679
-1.6725e+06 1.726e+06 -506.118
-1.672e+06 1.726e+06 -505.551
-1.6715e+06 1.726e+06 -503.249
-1.671e+06 1.726e+06 -500.535
-1.6705e+06 1.726e+06 -498.596
-1.67e+06 1.726e+06 -498.295
-1.6695e+06 1.726e+06 -498.431
-1.669e+06 1.726e+06 -498.955
-1.6685e+06 1.726e+06 -499.609
-1.668e+06 1.726e+06 -499.613
-1.6675e+06 1.726e+06 -499.795
-1.6835e+06 1.7265e+06 -496.409
-1.683e+06 1.7265e+06 -496.718
-1.6825e+06 1.7265e+06 -496.905
-1.682e+06 1.7265e+06 -497.492
-1.6815e+06 1.7265e+06 -497.124
-1.681e+06 1.7265e+06 -495.591
-1.6805e+06 1.7265e+06 -494.67
-1.68e+06 1.7265e+06 -496.007
-1.6795e+06 1.7265e+06 -499.491
-1.679e+06 1.7265e+06 -502.958
-1.6785e+06 1.7265e+06 -505.133
-1.678e+06 1.7265e+06 -505.556
-1.6775e+06 1.7265e+06 -504.83
-1.677e+06 1.7265e+06 -503.665
-1.6765e+06 1.7265e+06 -502.659
-1.676e+06 1.7265e+06 -501.875
-1.6755e+06 1.7265e+06 -501.187
-1.675e+06 1.7265e+06 -500.381
-1.6745e+06 1.7265e+06 -500.427
-1.674e+06 1.7265e+06 -501.664
-1.6735e+06 1.7265e+06 -503.844
-1.673e+06 1.7265e+06 -505.452
-1.6725e+06 1.7265e+06 -506.017
-1.672e+06 1.7265e+06 -505.177
-1.6715e+06 1.7265e+06 -502.899
-1.671e+06 1.7265e+06 -500.365
-1.6705e+06 1.7265e+06 -498.626
-1.67e+06 1.7265e+06 -498.164
-1.6695e+06 1.7265e+06 -498.653
-1.669e+06 1.7265e+06 -499.583
-1.6685e+06 1.7265e+06 -500.533
-1.668e+06 1.7265e+06 -500.521
-1.6675e+06 1.7265e+06 -500.404
-1.667e+06 1.7265e+06 -500.131
-1.6835e+06 1.727e+06 -497.292
-1.683e+06 1.727e+06 -497.211
-1.6825e+06 1.727e+06 -497.392
-1.682e+06 1.727e+06 -498.325
-1.6815e+06 1.727e+06 -497.317
-1.681e+06 1.727e+06 -495.693
-1.6805e+06 1.727e+06 -494.643
-1.68e+06 1.727e+06 -495.979
-1.6795e+06 1.727e+06 -499.213
-1.679e+06 1.727e+06 -502.575
-1.6785e+06 1.727e+06 -504.797
-1.678e+06 1.727e+06 -505.422
-1.6775e+06 1.727e+06 -504.732
-1.677e+06 1.727e+06 -503.363
-1.6765e+06 1.727e+06 -502.061
-1.676e+06 1.727e+06 -501.323
-1.6755e+06 1.727e+06 -501.027
-1.675e+06 1.727e+06 -500.828
-1.6745e+06 1.727e+06 -501.241
-1.674e+06 1.727e+06 -502.338
-1.6735e+06 1.727e+06 -503.851
-1.673e+06 1.727e+06 -505.336
-1.6725e+06 1.727e+06 -505.968
-1.672e+06 1.727e+06 -505.008
-1.6715e+06 1.727e+06 -502.711
-1.671e+06 1.727e+06 -500.211
-1.6705e+06 1.727e+06 -498.604
-1.67e+06 1.727e+06 -498.16
-1.6695e+06 1.727e+06 -498.758
-1.669e+06 1.727e+06 -499.83
-1.6685e+06 1.727e+06 -500.711
-1.668e+06 1.727e+06 -500.95
-1.6675e+06 1.727e+06 -500.838
-1.683e+06 1.7275e+06 -497.335
-1.6825e+06 1.7275e+06 -497.501
-1.682e+06 1.7275e+06 -497.994
-1.6815e+06 1.7275e+06 -497.411
-1.681e+06 1.7275e+06 -496.105
-1.6805e+06 1.7275e+06 -495.266
-1.68e+06 1.7275e+06 -496.227
-1.6795e+06 1.7275e+06 -499.114
-1.679e+06 1.7275e+06 -502.516
-1.6785e+06 1.7275e+06 -505.101
-1.678e+06 1.7275e+06 -505.584
-1.6775e+06 1.7275e+06 -504.631
-1.677e+06 1.7275e+06 -503.071
-1.6765e+06 1.7275e+06 -501.659
-1.676e+06 1.7275e+06 -500.977
-1.6755e+06 1.7275e+06 -500.97
-1.675e+06 1.7275e+06 -501.178
-1.6745e+06 1.7275e+06 -501.67
-1.674e+06 1.7275e+06 -502.595
-1.6735e+06 1.7275e+06 -503.923
-1.673e+06 1.7275e+06 -505.341
-1.6725e+06 1.7275e+06 -505.859
-1.672e+06 1.7275e+06 -504.892
-1.6715e+06 1.7275e+06 -502.589
-1.671e+06 1.7275e+06 -500.199
-1.6705e+06 1.7275e+06 -498.595
-1.67e+06 1.7275e+06 -498.133
-1.6695e+06 1.7275e+06 -498.739
-1.669e+06 1.7275e+06 -499.712
-1.6685e+06 1.7275e+06 -500.694
-1.668e+06 1.7275e+06 -501.208
-1.6675e+06 1.7275e+06 -501.146
-1.667e+06 1.7275e+06 -500.812
-1.6835e+06 1.728e+06 -497.379
-1.683e+06 1.728e+06 -497.3
-1.6825e+06 1.728e+06 -497.412
-1.682e+06 1.728e+06 -498.268
-1.6815e+06 1.728e+06 -497.274
-1.681e+06 1.728e+06 -495.837
-1.6805e+06 1.728e+06 -495.553
-1.68e+06 1.728e+06 -496.545
-1.6795e+06 1.728e+06 -499.293
-1.679e+06 1.728e+06 -502.395
-1.6785e+06 1.728e+06 -504.836
-1.678e+06 1.728e+06 -505.447
-1.6775e+06 1.728e+06 -504.487
-1.677e+06 1.728e+06 -502.891
-1.6765e+06 1.728e+06 -501.509
-1.676e+06 1.728e+06 -500.83
-1.6755e+06 1.728e+06 -500.832
-1.675e+06 1.728e+06 -501.108
-1.6745e+06 1.728e+06 -501.613
-1.674e+06 1.728e+06 -502.635
-1.6735e+06 1.728e+06 -503.972
-1.673e+06 1.728e+06 -505.247
-1.6725e+06 1.728e+06 -505.772
-1.672e+06 1.728e+06 -504.747
-1.6715e+06 1.728e+06 -502.531
-1.671e+06 1.728e+06 -500.166
-1.6705e+06 1.728e+06 -498.621
-1.67e+06 1.728e+06 -498.153
-1.6695e+06 1.728e+06 -498.75
-1.669e+06 1.728e+06 -499.787
-1.6685e+06 1.728e+06 -500.804
-1.668e+06 1.728e+06 -501.268
-1.6675e+06 1.728e+06 -501.274
-1.6835e+06 1.7285e+06 -497.188
-1.683e+06 1.7285e+06 -497.05
-1.6825e+06 1.7285e+06 -496.317
-1.682e+06 1.7285e+06 -496.692
-1.6815e+06 1.7285e+06 -495.543
-1.681e+06 1.7285e+06 -494.087
-1.6805e+06 1.7285e+06 -494.627
-1.68e+06 1.7285e+06 -496.376
-1.6795e+06 1.7285e+06 -498.881
-1.679e+06 1.7285e+06 -501.997
-1.6785e+06 1.7285e+06 -504.504
-1.678e+06 1.7285e+06 -505.368
-1.6775e+06 1.7285e+06 -504.445
-1.677e+06 1.7285e+06 -502.777
-1.6765e+06 1.7285e+06 -501.397
-1.676e+06 1.7285e+06 -500.694
-1.6755e+06 1.7285e+06 -500.666
-1.675e+06 1.7285e+06 -501.009
-1.6745e+06 1.7285e+06 -501.657
-1.674e+06 1.7285e+06 -502.697
-1.6735e+06 1.7285e+06 -503.957
-1.673e+06 1.7285e+06 -505.07
-1.6725e+06 1.7285e+06 -505.502
-1.672e+06 1.7285e+06 -504.642
-1.6715e+06 1.7285e+06 -502.419
-1.671e+06 1.7285e+06 -500.221
-1.6705e+06 1.7285e+06 -498.792
-1.67e+06 1.7285e+06 -498.377
-1.6695e+06 1.7285e+06 -498.892
-1.669e+06 1.7285e+06 -499.796
-1.6685e+06 1.7285e+06 -500.732
-1.668e+06 1.7285e+06 -501.338
-1.6675e+06 1.7285e+06 -501.395
-1.6835e+06 1.729e+06 -496.844
-1.683e+06 1.729e+06 -496.675
-1.6825e+06 1.729e+06 -495.246
-1.682e+06 1.729e+06 -493.252
-1.6815e+06 1.729e+06 -492.469
-1.681e+06 1.729e+06 -491.287
-1.6805e+06 1.729e+06 -490.739
-1.68e+06 1.729e+06 -494.508
-1.6795e+06 1.729e+06 -497.66
-1.679e+06 1.729e+06 -501.473
-1.6785e+06 1.729e+06 -504.372
-1.678e+06 1.729e+06 -505.271
-1.6775e+06 1.729e+06 -504.393
-1.677e+06 1.729e+06 -502.842
-1.6765e+06 1.729e+06 -501.463
[...]
POINT_DATA 7674
SCALARS T double
LOOKUP_TABLE default
68.0128 50.3995 69.8799 82.1531 73.7546 46.1408 12.6828 -14.0262 -27.6465 -27.5982 -0.444901 31.8307 -3.6831 -11.4118 -13.2209 1.7264 23.1056 39.9105 51.2856 62.1626 71.3581 66.3872 40.8581 5.33516 -25.1294 -43.8416 -47.546 -32.1041 -0.347387 36.9113 69.7947 89.8246 72.3448 34.189 -2.16167 -15.0278 -14.2132 -18.685 -27.7455 -31.9833 -25.3945 9.38583 -2.60726 -13.7466 -12.4627 5.11757 28.748 44.9945 51.1288 53.688 54.9129 46.2323 22.5095 -7.35399 -34.5339 -60.2422 -76.534 -60.4336 -2.83949 73.3701 136.259 166.355 157.849 116.129 54.1205 -1.86073 -24.2465 -22.0627 -23.7476 -34.2241 -43.4847 -43.8316 -35.3402 -25.9502 18.4284 23.9845 21.8089 10.84 -1.20234 -2.5683 11.7306 34.5185 52.9878 60.22 57.1646 46.4402 29.0938 9.62642 -4.27018 -16.6265 -42.8218 -72.5024 -63.0035 12.5223 123.091 210.157 236.754 202.145 131.279 53.0719 -10.7935 -40.9039 -41.7687 -40.7902 -48.0355 -56.8013 -58.2943 16.427 23.7485 26.3421 21.427 13.4355 11.3275 21.1924 40.1848 58.6517 67.7588 62.6766 44.8938 24.4333 16.4408 29.8746 50.1912 46.1848 17.8149 10.1034 61.2623 153.312 226.914 234.983 176.049 88.5667 10.8412 -44.5291 -72.7117 -77.5643 -76.4727 -78.1116 -79.6186 -74.6049 5.82525 12.6166 19.701 23.4581 23.896 24.8477 30.8069 42.2657 54.783 62.0852 58.7438 45.0852 32.7145 42.3054 88.5174 155.062 196.822 189.847 156.486 136.334 144.415 157.194 136.685 74.2128 -0.340756 -57.7749 -94.3074 -113.303 -118.743 -117.862 -114.122 -106.644 -92.4077 -69.3574 -7.34552 -2.76184 7.44392 19.8987 30.1245 36.0124 38.9513 41.4277 44.5579 47.5367 48.4422 46.7292 49.1934 76.0138 148.959 255.772 341.764 362.303 311.368 214.66 117.417 48.5497 -2.02622 -49.64 -91.4135 -119.627 -136.698 -146.947 -151.288 -149.804 -142.101 -127.844 -105.867 -15.939 -3.91041 15.8817 34.9803 46.0623 47.348 42.1646 36.4438 35.3171 40.7436 51.0863 66.8899 103.717 186.719 310.916 421.103 461.305 407.264 266.954 97.9724 -29.9509 -102.422 -139.116 -157.433 -164.698 -167.591 -171.326 -173.83 -170.891 -160.107 -140.863 -112.777 -78.299 -21.7482 -21.5172 -8.54715 16.2396 41.7718 57.108 57.7874 47.0489 34.3171 29.6377 37.7529 55.7362 78.7617 115.457 189.589 305.898 419.64 470.459 422.568 274.17 83.9498 -64.5835 -147.367 -184.601 -198.665 -200.087 -195.514 -192.419 -190.724 -185.243 -170.925 -145.924 -111.633 -16.8478 -15.5937 -2.54087 23.3059 50.8451 67.916 68.3764 54.3771 36.6539 28.6145 37.4871 59.4705 85.0545 114.985 167.536 254.424 349.162 399.048 362.885 234.178 64.0115 -73.5783 -153.712 -191.757 -208.977 -214.63 -209.542 -200.127 -193.332 -186.452 -172.295 -145.792 -108.705 -4.52169 0.558755 13.1642 35.7167 60.161 75.786 76.1947 61.8021 42.5133 32.7424 41.9988 66.8942 94.546 118.186 147.402 193.679 247.612 278.691 256.343 171.729 52.6972 -53.5361 -120.642 -150.877 -163.829 -173.277 -174.083 -165.192 -158.63 -159.574 -173.444 -149.955 -90.6376 -37.7554 9.94089 20.0627 32.2455 49.3866 67.516 79.4646 80.1136 69.1366 53.3038 45.0189 55.047 81.9015 111.773 133.43 148.098 161.835 173.854 177.508 167.548 138.869 84.6632 16.4279 -35.7662 -53.606 -52.7945 -58.0468 -66.6288 -69.3414 -72.1476 -96.0655 -127.976 -96.9512 -40.0167 20.7022 35.0282 47.2055 59.6279 71.4824 79.8207 82.6987 80.0214 70.6345 63.7127 73.7198 102.452 133.89 158.552 173.104 176.764 170.8 160.392 162.042 176.387 170.714 136.933 100.194 89.9981 102.89 111.69 113.488 87.8242 68.136 45.1633 27.1699 8.02946 32.4294 56.2193 24.1037 40.3124 52.9229 63.4166 72.6889 81.0763 86.8746 88.5558 89.1374 90.7528 100.267 126.065 159.57 194.127 224.275 240.134 248.305 247.707 262.241 306.623 338.433 342.417 310.365 276.743 282.698 306.643 294.286 210.921 170.949 161.704 161.321 118.855 87.1588 21.3165 36.6996 49.613 62.116 74.5376 83.3372 89.8267 95.5702 100.961 105 111.593 130.464 161.406 198.042 237.069 266.842 305.136 346.465 381.475 418.041 463.437 509.453 485.671 404.3 357.972 341.612 313.576 239.571 193.689 173.837 163.014 130.372 112.372 121.515 17.6821 30.2396 40.5109 59.8779 79.665 91.3189 98.7609 107.182 112.229 111.782 113.631 129.131 155.507 183.99 220.01 259.534 308.636 370.502 414.305 443.85 477.531 522.796 514.485 439.003 370.545 326.851 284.903 213.385 152.025 115.473 98.97 91.8558 110.294 129.121 17.8249 26.883 33.926 62.449 89.2512 105.878 115.247 121.972 126.27 127.322 126.234 127.233 138.425 154.312 181.915 222.782 266.409 314.753 347.349 381.216 419.783 457.19 451.058 387.652 319.441 274.733 233.924 163.913 94.3315 52.5811 45.9912 61.6036 99.0809 23.5859 31.5888 44.5709 71.6905 99.6271 122.835 134.171 135.686 137.554 138.948 136.711 127.003 126.885 134.738 151.889 181.608 205.478 213.868 223.446 263.897 312.7 348.47 343.873 292.237 232.055 182.127 134.577 87.4829 42.0826 13.5126 21.5591 49.7767 102.713 134.941 36.2657 45.4376 60.4847 83.7187 107.518 128.67 138.903 139.279 139.065 134.388 125.704 114.735 117.476 129.578 142.192 158.592 162.151 145.603 137.509 164.99 201.757 225.338 225.61 188.526 140.862 94.1136 52.8173 26.5132 4.90513 -5.15194 13.3599 43.9954 89.8476 33.7003 46.3114 55.841 73.7249 92.1419 109.818 125.026 133.634 136.105 134.514 122.634 104.508 88.501 96.1294 122.354 138.894 143.127 141.34 138.903 129.813 112.637 107.497 105.17 103.831 87.4524 63.322 39.0154 16.3468 -7.15047 -20.4033 -18.156 5.93848 38.5453 91.6245 127.499 307.288 39.0331 54.7996 72.6267 88.428 106.22 122.759 133.272 132.746 126.112 109.581 82.9797 54.0673 45.5459 71.6284 98.3665 103.54 116.199 134.467 135.052 96.1199 56.7849 27.3659 10.0135 15.1094 14.7251 6.22325 -6.91878 -31.1044 -38.3293 -26.9391 2.05254 33.8746 80.7432 336.439 27.9137 38.2207 55.2956 77.7244 100.258 119.236 129.004 126.126 115.746 99.1438 66.8445 18.5119 -20.7069 -23.8053 7.17844 40.6311 75.81 104.055 109.961 88.6686 55.759 22.8532 -1.96405 5.41437 -1.392 -20.0713 -32.1108 -45.4529 -44.9804 -28.5836 -0.168162 29.734 87.6443 119.169 320.512 333.636 23.9097 25.9974 40.9266 72.4065 99.4823 119.23 124.4 117.268 104.138 89.7056 59.566 6.88428 -47.5245 -85.4525 -71.4421 -8.30914 43.7424 79.5923 94.8495 87.1111 79.1817 74.8818 61.1707 41.8518 12.7925 -10.7627 -22.3872 -33.2909 -37.0943 -25.692 -1.73035 33.3516 77.7066 346.854 348.331 326.757 29.3975 29.8513 45.9292 84.025 111.83 127.981 126.597 110.982 90.9712 74.1141 52.5837 14.9136 -26.6644 -62.0383 -61.602 -12.6232 25.4499 49.3668 64.6329 69.1499 81.0255 105.41 102.493 61.2558 28.0224 14.7103 9.85062 -8.14204 -20.8445 -14.1956 2.31792 42.6178 82.2497 361.446 380.566 352.268 361.397 55.1794 56.3083 74.4429 114.244 140.105 149.486 139.244 110.651 79.7739 56.4802 45.2797 34.24 23.4592 17.6308 19.3939 17.791 11.6108 7.44586 9.18999 27.0519 52.124 76.875 80.5663 54.7891 32.3656 18.6664 12.8078 5.55888 -2.05763 5.045 18.6581 57.5551 92.8154 394.23 402.736 368.571 371.933 332.601 87.1866 101.677 119.439 161.455 188.073 188.05 166.741 126.482 84.7793 52.4416 43.1894 56.312 75.3586 88.4672 85.3479 49.8338 9.26586 -17.6962 -25.4609 -3.90637 28.6983 44.7889 51.9125 50.069 36.2309 18.9245 8.72976 15.0292 20.3252 32.9686 49.7417 75.004 102.725 372.151 401.244 384.582 355.465 321.617 147.648 177.047 219.55 248.459 247.511 219.257 168.37 110.354 63.8352 50.0668 74.3947 108.736 132.439 133.435 86.6893 27.121 -8.92291 -16.6734 2.94885 34.6526 51.6669 58.6823 60.5166 51.8776 39.66 31.7379 36.5409 44.8297 59.4356 74.5401 83.471 121.239 142.946 329.783 363.367 362.856 320.018 286.185 250.658 170.372 202.85 234.199 282.029 318.781 331.485 298.983 232.958 158.301 98.1053 72.8765 88.3862 114.812 130.927 128.345 93.778 46.0454 17.388 15.2281 34.5068 62.4915 80.5314 86.7381 86.7604 83.2012 75.7295 65.5204 65.8593 70.788 80.5055 90.0782 92.2763 125.254 149.784 261.522 282.497 287.818 265.583 245.258 240.674 197.375 230.572 272.049 325.554 367.019 395.979 373.577 298.644 217.484 151.346 112.117 107.987 109.292 102.912 90.5114 76.5202 68.6813 62.5896 67.4887 84.4109 107.202 121.06 124.038 120.06 119.4 120.462 114.831 106.202 96.4487 95.4512 100.88 96.293 122.971 196.774 191.233 204.906 209.709 219.339 202.127 193.938 227.134 265.997 320.313 369.139 416.583 415.728 339.888 266.283 213.35 175.191 148.403 121.438 95.6932 85.5236 91.197 107.466 119.12 130.606 144.408 162.005 169.132 162.312 149.313 141.659 156.187 180.897 157.948 118.846 94.6286 94.8188 93.2314 146.791 163.157 162.39 162.046 123.456 142.514 165.318 181.328 179.087 196.973 225.204 278.301 328.256 374.311 383.438 330.114 279.686 254.083 231.231 190.747 148.012 117.852 115.811 134.573 157.577 174.367 188.22 202.885 221.305 231.113 217.347 177.262 134.3 149.111 208.267 196.41 149.262 108.77 97.2513 115.134 160.007 120.639 99.8521 106.845 135.669 165.975 161.412 166.78 185.518 228.123 265.36 291.362 294.764 280.108 258.249 253.089 245.319 211.362 179.026 159.679 166.039 192.503 219.079 235.31 243.277 254.687 276.587 296.331 283.616 223.573 145.004 98.3117 129.119 193.11 209.393 205.853 193.712 195.097 227.939 231.984 117.129 97.0384 96.3335 123.955 176.268 182.426 153.12 152.609 160.6 187.526 209.094 224.234 224.907 226.859 220.198 218.013 218.944 213.162 211.25 211.49 226.159 259.076 288.165 302.494 304.889 305.792 316.085 328.963 319.008 273.353 207.751 113.288 105.486 244.573 316.878 342.532 345.407 301.654 272.136 282.918 283.519 291.326 292.272 273.415 233.291 184.645 146.176 116.079 119.453 140.655 182.042 215.303 154.299 151.661 152.285 167.044 176.52 187.987 193.094 195.961 195.938 193.086 203.151 224.012 245.682 267.646 293.468 323.68 351.279 368.325 371.972 361.035 347.129 328.041 318.655 318.054 339.644 334.089 335.209 401.193 442.674 442.538 420.11 358.846 302.451 283.866 299.339 317.805 322.725 314.509 279.148 223.148 175.906 153.7 158.206 174.138 202.209 234.841 236.599 243.932 226.808 161.063 158.572 157.747 162.169 163.887 173.801 184.303 189.788 195.497 198.839 214.863 242.491 273.693 307.67 341.044 367.471 395.701 422.29 434.509 422.003 398.89 364.413 367.523 414.247 489.772 551.998 573.597 551.745 536.412 510.939 462.438 388.585 319.389 282.824 281.041 290.568 308.889 330.874 320.151 257.934 211.966 190.657 190.927 206.014 226.797 252.76 267.033 286.778 287.871 233.938 167.055 161.977 161.886 165.102 165.755 175.699 189.632 201.155 213.36 223.567 239.051 265.167 296.938 328.657 358.712 387.113 417.395 446.936 467.462 477.004 491.003 502.039 520.774 558.613 598.746 630.143 642.111 617.917 589.886 550.606 485.847 398.692 312.076 255.248 252.671 277.922 308.247 322.197 314.909 285.55 241.225 217.138 207.732 223.752 249.168 268.198 273.053 285.995 298.694 258.856 177.146 167.056 164.299 176.168 181.14 190.563 205.83 224.252 241.865 254.359 268.095 291.757 319.537 347.072 375.571 404.134 427.155 448.395 473.822 515.916 581.333 643.106 672.539 675.413 663.445 647.22 641.594 643.228 627.008 578.022 494.908 400.404 313.781 244.345 238.532 264.211 302.536 323.438 317.697 301.389 274.226 250.809 234.811 243.455 268.355 284.077 276.735 279.643 293.797 257.716 199.799 185.959 180.672 201.704 212.045 220.366 234.206 254.132 274.314 292.515 307.778 322.709 341.828 366.238 398.73 428.971 442.047 445.52 468.199 532.525 626.885 708.091 740.613 726.067 692.803 662.83 657.442 677.925 678.832 633.823 544.792 439.676 347.978 268.348 249.839 271.324 311.891 339.347 340.81 335.159 322.598 304.063 282.733 275.636 285.13 288.708 277.028 280.723 290.602 247.797 234.8 226.691 224.181 245.292 257.602 264.729 271.373 286.374 304.425 325.131 342.909 349.749 359.297 379.965 414.81 455.125 478.41 479.02 494.187 552.839 632.721 700.383 728.521 716.726 694.44 684.534 698.067 729.075 746.198 721.195 641.832 523.382 409.449 321.315 290.534 308.977 349.169 379.302 383.378 385.237 378.435 364.926 339.679 318.245 304.806 291.48 279.527 289.994 294.551 274.398 283.62 287.782 306.204 311.792 314.16 310.554 314.528 324.48 337.83 354.982 364.516 373.355 386.472 416.357 477.637 531.306 556.133 563.232 582.448 615.804 648.687 666.729 669.005 672.491 690.673 724.931 766.627 796.643 789.934 722.49 599.6 471.584 377.88 344.027 361.939 401.494 430.819 431.125 430.653 419.015 409.223 381.79 347.773 319.752 299.038 288.047 302.937 301.416 234.32 304.589 336.744 346.676 358.777 353.91 353.415 346.839 332.104 327.567 329.468 344.429 365.188 385.738 400.074 427.714 494.084 563.808 609.188 616.326 597.821 587.163 587.992 595.781 609.988 632.745 667.973 715.449 768.102 808.551 813.287 756.621 638.575 512.549 427.733 401.517 418.059 454.567 478.614 469.564 454.661 428.555 417.961 393.264 353.437 322.141 302.561 292.82 306.701 292.508 302.104 347.499 362.784 368.663 362.065 364.169 360.008 328.055 309.406 306.416 321.061 352.456 392.21 430.458 467.51 515.629 568.98 608.212 614.368 585.094 556.622 542.809 543.91 562.227 589.452 624.837 675.902 737.392 789.434 805.998 766.771 675.778 568.057 492.512 466.772 475.099 502.106 516.368 495.204 459.607 412.892 392.626 369.19 335.864 308.614 289.567 279.986 299.026 276.596 265.168 303.44 323.338 330.208 329.492 334.206 330.521 300.523 277.323 275.414 294.767 333.621 384.438 442.949 488.186 516.228 545.216 566.972 570.783 555.319 531.83 516.305 516.741 536.516 559.199 581.848 628.196 700.171 771.524 805.755 776.924 694.392 609.447 559.373 530.886 525.382 537.173 539.331 507.241 453.736 387.037 346.111 319.873 306.163 288.709 275.415 259.502 289.564 282.046 208.549 229.208 244.935 260.642 267.274 274.896 271.503 251.407 232.387 235.536 260.965 302.803 351.458 405.866 454.626 487.608 510.109 523.424 526.685 527.537 517.145 507.768 513.025 531.834 549.257 563.218 611.509 701.117 757.07 766.597 724.348 682.813 647.426 610.501 576.03 555.9 550.809 540.744 503.35 438.919 358.605 310.082 283.298 290.399 290.266 295.301 289.982 302.85 330.905 149.512 156.102 165.345 187.856 198.029 207.169 205.235 193.902 185.373 190.634 216.09 257.919 305.25 351.364 399.115 447.173 479.388 499.087 505.875 513.634 516.286 514.467 520.016 534.006 555.269 588.631 648.148 707.902 721.226 728.501 724.552 703.93 671.363 631.29 590.598 558.887 539.288 518.297 479.778 416.549 347.915 313.144 296.672 310.936 326.053 343.223 342.174 336.826 372.587 277.896 96.8636 98.3725 104.146 127.064 138.95 147.763 149.303 144.898 143.979 147.433 171.494 215.424 263.224 307.596 354.769 413.346 462.027 495.205 512.796 522.047 525.071 523.582 529.705 549.629 586.496 629.62 667.204 707.426 738.155 750.929 742.145 713.276 671.624 623.98 577.821 540.199 512.363 484.487 448.797 398.814 355.979 335.119 332.71 354.405 373.867 388.542 385.262 383.383 401.521 61.5275 61.9117 67.6344 87.7005 100.854 109.8 115.183 115.104 117.816 124.263 147.166 187.728 233.089 280.841 333.719 396.206 455.209 499.968 526.889 534.746 533.28 538.986 551.879 577.629 608.936 651.576 698.15 738.048 763.023 768.202 751.298 713.476 661.158 604.467 554.29 516.857 489.176 463.03 434.744 407.698 381.535 367.901 372.48 391.58 409.863 420.251 424.975 433.246 423.665 333.02 41.4675 41.7975 49.5915 67.9567 81.1216 91.2083 99.4452 102.32 105.969 114.493 134.722 171.559 213.968 262.481 320.012 384.379 446.554 499.976 531.961 538.081 541.566 545.115 563.271 598.096 639.763 684.482 727.097 760.934 780.209 780.608 759.227 715.909 656.301 592.811 540.657 506.159 485.006 473.568 462.504 440.857 415.172 403.318 412.056 434.471 454.772 463.934 468.445 473.887 445.283 30.2783 35.8216 44.6202 62.3982 74.7881 85.3124 93.9048 98.9286 104.146 114.293 133.203 165.793 204.35 248.138 303.253 370.962 438.218 497.167 528.972 537.955 546.629 555.413 589.597 629.278 670.003 711.084 749.418 779.774 796.574 795.264 772.838 728.466 666.919 601.372 548.833 516.424 505.074 503.919 493.562 472.033 449.698 443.013 457.055 480.184 497.726 502.925 504.138 506.407 472.346 24.8258 38.3011 48.1413 66.5074 76.6214 85.0959 93.743 101.482 109.188 120.164 137.959 165.613 200.233 239.21 291.07 360.357 430.008 487.987 519.815 538.273 542.419 574.152 615.446 657.483 699.441 739.27 774.717 802.116 816.719 814.515 792.93 751.039 692.329 628.933 577.147 544.732 529.15 530.016 519.818 503.025 492.877 491.473 507.988 527.721 539.477 538.792 535.855 537.859 509.554 394.36 15.7967 41.7304 58.5188 73.1264 79.9225 88.5876 98.7369 107.17 115.803 125.773 141.673 167.964 201.59 240.748 291.423 355.704 422.924 477.789 512.431 532.857 549.367 593.417 639.25 686.969 733.276 773.376 805.593 828.595 839.678 836.128 815.916 778.328 725.518 666.823 615.994 581.618 561.322 552.329 552.239 543.296 535.482 542.407 558.747 575.407 583.179 578.603 571.85 570.208 540.225 -11.6445 29.6102 57.3432 66.5122 73.4044 86.4359 98.097 112.241 122.428 134.564 149.691 172.333 202.962 241.682 290.942 351.886 417.452 468.727 502.871 531.754 557.565 608.41 660.563 715.377 766.5 807.107 835.947 853.944 860.952 855.974 837.668 805.101 759.437 706.496 656.085 616.878 591.098 575.356 566.582 563.911 569.245 582.44 600.044 616.412 623.881 619.153 610.225 602.74 565.543 442.639 -90.2837 -63.8684 -20.9017 13.6918 28.2627 42.294 65.6399 87.4583 105.882 124.647 143.368 158.98 175.767 199.135 234.976 284.314 345.616 411.726 463.148 496.771 528.8 559.924 616.22 674.798 735.19 789.628 830.643 857.232 871.703 875.909 870.523 855.035 828.238 790.318 743.847 694.187 648.127 611.001 585.584 572.57 571.869 582.514 601.25 622.866 640.952 649.965 647.365 638.739 626.114 580.092 -131.684 -107.378 -73.6499 -39.5151 -9.17204 25.0554 59.2082 87.2066 116.959 144.344 161.805 173.323 188.746 220.015 270.027 335.918 407.205 464.984 499.184 529.752 556.127 611.863 675.534 739.533 795.908 837.814 864.303 878.083 882.1 878.287 867.054 847.252 817.9 779.174 732.482 680.674 628.998 585.784 560.108 556.352 571.309 596.288 621.908 641.526 651.345 650.614 643.714 629.526 577.171 438.702 -201.74 -191.492 -161.883 -114.587 -68.7569 -24.7117 17.3408 57.6856 96.958 131.528 151.604 158.687 170.127 198.858 250.689 321.635 397.392 463.015 503.544 528.456 549.983 592.044 656.963 724.13 782.825 826.95 855.889 872.397 879.769 880.267 874.883 863.249 843.449 814.365 774.383 722.716 661.059 598.788 553.191 537.181 548.22 573.069 598.554 616.925 625.557 625.073 620.32 608.219 551.927 -256.232 -251.584 -225.785 -178.633 -123.453 -70.1564 -19.6745 27.2345 70.0903 106.508 129.414 139.773 153.255 179.867 229.295 304.177 384.706 456.329 506.405 525.715 538.643 564.637 620.998 690.153 752.152 800.053 833.948 856.786 871.112 878.741 880.874 877.454 867.386 849.018 819.665 775.725 715.012 643.31 578.777 540.395 531.064 540.842 557.895 572.856 579.676 577.326 572.706 567.663 524.478 -294.482 -298.11 -277.522 -229.6 -168.147 -110.684 -55.7809 -5.18595 41.0099 78.7341 107.512 125.798 141.764 165.716 211.34 289.721 372.084 443.725 501.798 534.401 538.238 539.612 584.765 650.992 712.559 763.629 803.547 835.148 859.379 876.183 886.265 890.183 888.144 879.354 861.106 829.082 779.637 713.432 640.514 576.416 531.011 508.347 508.096 519.859 527.143 522.671 512.372 513.56 503.094 393.219 -310.312 -318.698 -306.155 -264.788 -204.96 -148.638 -91.187 -36.5549 17.2491 61.9801 97.5267 122.868 142.73 168.619 211.584 282.955 362.861 434.913 500.404 554.262 580.495 571.23 588.588 643.712 684.762 729.468 772.827 813.072 848.105 874.271 890.4 897.603 900.036 899.12 890.183 869.716 834.966 782.682 712.572 629.592 545.709 482.683 460.26 470.082 482.214 489.4 468.814 458.122 492.744 -314.174 -310.745 -299.223 -277.959 -233.611 -183.638 -124.547 -63.4827 -1.3863 52.1536 95.9803 131.838 158.398 184.423 219.411 281.257 358.018 430.116 502.15 583.183 657.66 685.505 684.6 698.652 700.576 710.735 750.023 795.273 838.761 870.124 882.495 879.5 882.394 899.123 903.381 892.435 869.52 830.133 767.21 676.247 566.078 470.296 427.852 434.874 455.941 487.735 473.018 455.415 476.971 345.023 -279.326 -303.374 -278.999 -268.685 -246.846 -210.854 -154.86 -83.4236 -10.3764 53.188 106.369 153.272 187.869 213.972 241.544 289.304 354.477 422.003 500.098 614.363 741.645 815.363 823.359 804.827 748.961 706.009 734.521 779.776 826.079 849.499 836.831 814.142 826.204 879.467 902.721 898.579 882.941 851.671 794.61 702.826 582.132 470.394 416.033 418.783 452.551 481.429 464.165 455.197 454.975 -201.925 -246.423 -258.095 -251.276 -245.931 -223.642 -171.395 -88.2928 -5.79632 65.0145 125.44 180.69 224.815 255.166