# vtk DataFile Version 2.0
3D Data
ASCII
DATASET UNSTRUCTURED_GRID
POINTS 7822 double 
-1.6705e+06 1.7245e+06 -509.391
-1.681e+06 1.725e+06 -495.578
-1.6805e+06 1.725e+06 -498.077
-1.68e+06 1.725e+06 -501.505
-1.6795e+06 1.725e+06 -504.916
-1.679e+06 1.725e+06 -508.17
-1.6785e+06 1.725e+06 -510.316
-1.675e+06 1.725e+06 -509.295
-1.6745e+06 1.725e+06 -510.295
-1.674e+06 1.725e+06 -512.019
-1.6725e+06 1.725e+06 -512.666
-1.6715e+06 1.725e+06 -510.858
-1.671e+06 1.725e+06 -509.621
-1.6705e+06 1.725e+06 -508.618
-1.67e+06 1.725e+06 -508.37
-1.6695e+06 1.725e+06 -507.567
-1.669e+06 1.725e+06 -507.459
-1.667e+06 1.725e+06 -507.746
-1.6665e+06 1.725e+06 -506.999
-1.6655e+06 1.725e+06 -506.947
-1.6645e+06 1.725e+06 -507.705
-1.664e+06 1.725e+06 -507.67
-1.682e+06 1.7255e+06 -496.821
-1.6815e+06 1.7255e+06 -495.757
-1.681e+06 1.7255e+06 -495.679
-1.6805e+06 1.7255e+06 -496.839
-1.68e+06 1.7255e+06 -499.472
-1.6795e+06 1.7255e+06 -503.383
-1.679e+06 1.7255e+06 -507.046
-1.6785e+06 1.7255e+06 -509.613
-1.678e+06 1.7255e+06 -510.301
-1.6775e+06 1.7255e+06 -509.837
-1.677e+06 1.7255e+06 -509.085
-1.675e+06 1.7255e+06 -506.487
-1.6745e+06 1.7255e+06 -506.753
-1.674e+06 1.7255e+06 -508.163
-1.6735e+06 1.7255e+06 -510.887
-1.673e+06 1.7255e+06 -512.067
-1.6725e+06 1.7255e+06 -512.484
-1.672e+06 1.7255e+06 -511.669
-1.6715e+06 1.7255e+06 -510.418
-1.671e+06 1.7255e+06 -509.034
-1.6705e+06 1.7255e+06 -507.889
-1.67e+06 1.7255e+06 -507.644
-1.6695e+06 1.7255e+06 -507.594
-1.669e+06 1.7255e+06 -507.767
-1.6685e+06 1.7255e+06 -508.586
-1.668e+06 1.7255e+06 -509.57
-1.6675e+06 1.7255e+06 -508.841
-1.667e+06 1.7255e+06 -507.719
-1.6665e+06 1.7255e+06 -506.831
-1.666e+06 1.7255e+06 -506.5
-1.6655e+06 1.7255e+06 -506.644
-1.665e+06 1.7255e+06 -507.187
-1.6645e+06 1.7255e+06 -507.502
-1.664e+06 1.7255e+06 -507.577
-1.683e+06 1.726e+06 -498.039
-1.6825e+06 1.726e+06 -497.638
-1.682e+06 1.726e+06 -496.933
-1.6815e+06 1.726e+06 -495.541
-1.681e+06 1.726e+06 -494.518
-1.6805e+06 1.726e+06 -494.825
-1.68e+06 1.726e+06 -497.772
-1.6795e+06 1.726e+06 -502.31
-1.679e+06 1.726e+06 -506.511
-1.6785e+06 1.726e+06 -509.402
-1.678e+06 1.726e+06 -510.331
-1.6775e+06 1.726e+06 -509.89
-1.677e+06 1.726e+06 -508.882
-1.6765e+06 1.726e+06 -507.964
-1.676e+06 1.726e+06 -507.312
-1.6755e+06 1.726e+06 -506.566
-1.675e+06 1.726e+06 -505.644
-1.6745e+06 1.726e+06 -505.398
-1.674e+06 1.726e+06 -506.784
-1.6735e+06 1.726e+06 -509.422
-1.673e+06 1.726e+06 -511.169
-1.6725e+06 1.726e+06 -511.829
-1.672e+06 1.726e+06 -511.361
-1.6715e+06 1.726e+06 -510.11
-1.671e+06 1.726e+06 -508.64
-1.6705e+06 1.726e+06 -507.411
-1.67e+06 1.726e+06 -507.029
-1.6695e+06 1.726e+06 -507.571
-1.669e+06 1.726e+06 -508.186
-1.6685e+06 1.726e+06 -508.869
-1.668e+06 1.726e+06 -509.462
-1.6675e+06 1.726e+06 -508.992
-1.667e+06 1.726e+06 -507.869
-1.6665e+06 1.726e+06 -506.878
-1.666e+06 1.726e+06 -506.434
-1.6655e+06 1.726e+06 -506.523
-1.665e+06 1.726e+06 -506.947
-1.6645e+06 1.726e+06 -507.307
-1.664e+06 1.726e+06 -507.535
-1.6635e+06 1.726e+06 -507.545
-1.6835e+06 1.7265e+06 -499.153
-1.683e+06 1.7265e+06 -498.551
-1.6825e+06 1.7265e+06 -497.984
-1.682e+06 1.7265e+06 -497.025
-1.6815e+06 1.7265e+06 -495.386
-1.681e+06 1.7265e+06 -494.058
-1.6805e+06 1.7265e+06 -494.545
-1.68e+06 1.7265e+06 -497.578
-1.6795e+06 1.7265e+06 -501.867
-1.679e+06 1.7265e+06 -506.205
-1.6785e+06 1.7265e+06 -509.406
-1.678e+06 1.7265e+06 -510.527
-1.6775e+06 1.7265e+06 -510.074
-1.677e+06 1.7265e+06 -508.913
-1.6765e+06 1.7265e+06 -507.915
-1.676e+06 1.7265e+06 -507.169
-1.6755e+06 1.7265e+06 -506.569
-1.675e+06 1.7265e+06 -506.104
-1.6745e+06 1.7265e+06 -506.179
-1.674e+06 1.7265e+06 -507.071
-1.6735e+06 1.7265e+06 -508.963
-1.673e+06 1.7265e+06 -510.835
-1.6725e+06 1.7265e+06 -511.78
-1.672e+06 1.7265e+06 -511.293
-1.6715e+06 1.7265e+06 -509.935
-1.671e+06 1.7265e+06 -508.387
-1.6705e+06 1.7265e+06 -507.211
-1.67e+06 1.7265e+06 -507.051
-1.6695e+06 1.7265e+06 -507.67
-1.669e+06 1.7265e+06 -508.494
-1.6685e+06 1.7265e+06 -509.414
-1.668e+06 1.7265e+06 -510.035
-1.6675e+06 1.7265e+06 -509.214
-1.667e+06 1.7265e+06 -507.866
-1.6665e+06 1.7265e+06 -506.7
-1.666e+06 1.7265e+06 -506.406
-1.6655e+06 1.7265e+06 -506.542
-1.665e+06 1.7265e+06 -506.962
-1.6645e+06 1.7265e+06 -507.268
-1.664e+06 1.7265e+06 -507.555
-1.6635e+06 1.7265e+06 -507.722
-1.6835e+06 1.727e+06 -499.886
-1.683e+06 1.727e+06 -499.328
-1.6825e+06 1.727e+06 -498.569
-1.682e+06 1.727e+06 -497.304
-1.6815e+06 1.727e+06 -495.64
-1.681e+06 1.727e+06 -494.532
-1.6805e+06 1.727e+06 -494.938
-1.68e+06 1.727e+06 -497.602
-1.6795e+06 1.727e+06 -501.783
-1.679e+06 1.727e+06 -506.173
-1.6785e+06 1.727e+06 -509.307
-1.678e+06 1.727e+06 -510.5
-1.6775e+06 1.727e+06 -510.056
-1.677e+06 1.727e+06 -508.81
-1.6765e+06 1.727e+06 -507.687
-1.676e+06 1.727e+06 -507.073
-1.6755e+06 1.727e+06 -506.762
-1.675e+06 1.727e+06 -506.876
-1.6745e+06 1.727e+06 -507.211
-1.674e+06 1.727e+06 -507.642
-1.6735e+06 1.727e+06 -509.178
-1.673e+06 1.727e+06 -510.796
-1.6725e+06 1.727e+06 -511.683
-1.672e+06 1.727e+06 -511.069
-1.6715e+06 1.727e+06 -509.738
-1.671e+06 1.727e+06 -508.305
-1.6705e+06 1.727e+06 -507.341
-1.67e+06 1.727e+06 -507.262
-1.6695e+06 1.727e+06 -507.914
-1.669e+06 1.727e+06 -508.964
-1.6685e+06 1.727e+06 -509.872
-1.668e+06 1.727e+06 -510.157
-1.6675e+06 1.727e+06 -509.232
-1.667e+06 1.727e+06 -507.908
-1.6665e+06 1.727e+06 -506.892
-1.666e+06 1.727e+06 -506.483
-1.6655e+06 1.727e+06 -506.616
-1.665e+06 1.727e+06 -507.083
-1.6645e+06 1.727e+06 -507.606
-1.664e+06 1.727e+06 -507.781
-1.6635e+06 1.727e+06 -507.862
-1.663e+06 1.727e+06 -507.914
-1.6835e+06 1.7275e+06 -500.466
-1.683e+06 1.7275e+06 -499.869
-1.6825e+06 1.7275e+06 -498.899
-1.682e+06 1.7275e+06 -497.497
-1.6815e+06 1.7275e+06 -495.852
-1.681e+06 1.7275e+06 -494.886
-1.6805e+06 1.7275e+06 -495.197
-1.68e+06 1.7275e+06 -497.8
-1.6795e+06 1.7275e+06 -501.814
-1.679e+06 1.7275e+06 -506.044
-1.6785e+06 1.7275e+06 -509.336
-1.678e+06 1.7275e+06 -510.592
-1.6775e+06 1.7275e+06 -510.058
-1.677e+06 1.7275e+06 -508.637
-1.6765e+06 1.7275e+06 -507.227
-1.676e+06 1.7275e+06 -506.755
-1.6755e+06 1.7275e+06 -506.755
-1.675e+06 1.7275e+06 -507.042
-1.6745e+06 1.7275e+06 -507.494
-1.674e+06 1.7275e+06 -508.157
-1.6735e+06 1.7275e+06 -509.438
-1.673e+06 1.7275e+06 -510.74
-1.6725e+06 1.7275e+06 -511.364
-1.672e+06 1.7275e+06 -510.877
-1.6715e+06 1.7275e+06 -509.644
-1.671e+06 1.7275e+06 -508.21
-1.6705e+06 1.7275e+06 -507.15
-1.67e+06 1.7275e+06 -507.253
-1.6695e+06 1.7275e+06 -508.145
-1.669e+06 1.7275e+06 -509.262
-1.6685e+06 1.7275e+06 -510.013
-1.668e+06 1.7275e+06 -509.978
-1.6675e+06 1.7275e+06 -509.141
-1.667e+06 1.7275e+06 -507.903
-1.6665e+06 1.7275e+06 -506.789
-1.666e+06 1.7275e+06 -506.474
-1.6655e+06 1.7275e+06 -506.647
-1.665e+06 1.7275e+06 -507.109
-1.6645e+06 1.7275e+06 -507.531
-1.664e+06 1.7275e+06 -507.778
-1.6635e+06 1.7275e+06 -507.937
-1.663e+06 1.7275e+06 -508.01
-1.684e+06 1.728e+06 -501.369
-1.6835e+06 1.728e+06 -500.909
-1.683e+06 1.728e+06 -500.183
-1.6825e+06 1.728e+06 -499.009
-1.682e+06 1.728e+06 -497.456
-1.6815e+06 1.728e+06 -495.9
-1.681e+06 1.728e+06 -495.164
-1.6805e+06 1.728e+06 -495.693
-1.68e+06 1.728e+06 -497.727
-1.6795e+06 1.728e+06 -501.576
-1.679e+06 1.728e+06 -505.901
-1.6785e+06 1.728e+06 -509.498
-1.678e+06 1.728e+06 -510.673
-1.6775e+06 1.728e+06 -510.042
-1.677e+06 1.728e+06 -508.58
-1.6765e+06 1.728e+06 -507.233
-1.676e+06 1.728e+06 -506.643
-1.6755e+06 1.728e+06 -506.644
-1.675e+06 1.728e+06 -506.983
-1.6745e+06 1.728e+06 -507.516
-1.674e+06 1.728e+06 -508.326
-1.6735e+06 1.728e+06 -509.596
-1.673e+06 1.728e+06 -510.811
-1.6725e+06 1.728e+06 -511.488
-1.672e+06 1.728e+06 -510.772
-1.6715e+06 1.728e+06 -509.508
-1.671e+06 1.728e+06 -508.2
-1.6705e+06 1.728e+06 -507.361
-1.67e+06 1.728e+06 -507.409
-1.6695e+06 1.728e+06 -508.306
-1.669e+06 1.728e+06 -509.39
-1.6685e+06 1.728e+06 -510.044
-1.668e+06 1.728e+06 -509.849
-1.6675e+06 1.728e+06 -509.05
-1.667e+06 1.728e+06 -507.966
-1.6665e+06 1.728e+06 -507.03
-1.666e+06 1.728e+06 -506.585
-1.6655e+06 1.728e+06 -506.657
-1.665e+06 1.728e+06 -507.028
-1.6645e+06 1.728e+06 -507.449
-1.664e+06 1.728e+06 -507.789
-1.6635e+06 1.728e+06 -508.022
-1.663e+06 1.728e+06 -508.11
-1.6835e+06 1.7285e+06 -501.223
-1.683e+06 1.7285e+06 -500.354
-1.6825e+06 1.7285e+06 -498.978
-1.682e+06 1.7285e+06 -497.187
-1.6815e+06 1.7285e+06 -495.373
-1.681e+06 1.7285e+06 -494.319
-1.6805e+06 1.7285e+06 -495.328
-1.68e+06 1.7285e+06 -496.626
-1.6795e+06 1.7285e+06 -500.528
-1.679e+06 1.7285e+06 -505.269
-1.6785e+06 1.7285e+06 -508.906
-1.678e+06 1.7285e+06 -510.414
-1.6775e+06 1.7285e+06 -510.062
-1.677e+06 1.7285e+06 -508.713
-1.6765e+06 1.7285e+06 -507.285
-1.676e+06 1.7285e+06 -506.537
-1.6755e+06 1.7285e+06 -506.494
-1.675e+06 1.7285e+06 -506.896
-1.6745e+06 1.7285e+06 -507.561
-1.674e+06 1.7285e+06 -508.469
-1.6735e+06 1.7285e+06 -509.657
-1.673e+06 1.7285e+06 -510.667
-1.6725e+06 1.7285e+06 -511.004
-1.672e+06 1.7285e+06 -510.457
-1.6715e+06 1.7285e+06 -509.438
-1.671e+06 1.7285e+06 -508.314
-1.6705e+06 1.7285e+06 -507.572
-1.67e+06 1.7285e+06 -507.594
-1.6695e+06 1.7285e+06 -508.459
-1.669e+06 1.7285e+06 -509.417
-1.6685e+06 1.7285e+06 -509.859
-1.668e+06 1.7285e+06 -509.694
-1.6675e+06 1.7285e+06 -508.997
-1.667e+06 1.7285e+06 -508.051
-1.6665e+06 1.7285e+06 -507.135
-1.666e+06 1.7285e+06 -506.569
-1.6655e+06 1.7285e+06 -506.648
-1.665e+06 1.7285e+06 -507.057
-1.6645e+06 1.7285e+06 -507.551
-1.664e+06 1.7285e+06 -507.928
-1.6635e+06 1.7285e+06 -508.131
-1.663e+06 1.7285e+06 -508.19
-1.6835e+06 1.729e+06 -501.559
-1.683e+06 1.729e+06 -500.607
-1.6825e+06 1.729e+06 -498.998
-1.682e+06 1.729e+06 -496.759
-1.6815e+06 1.729e+06 -494.397
-1.681e+06 1.729e+06 -492.484
-1.6805e+06 1.729e+06 -491.862
-1.68e+06 1.729e+06 -494.355
-1.6795e+06 1.729e+06 -499.18
-1.679e+06 1.729e+06 -504.527
-1.6785e+06 1.729e+06 -508.821
-1.678e+06 1.729e+06 -510.607
-1.6775e+06 1.729e+06 -510.275
-1.677e+06 1.729e+06 -508.847
-1.6765e+06 1.729e+06 -507.358
[...]
POINT_DATA 7822
SCALARS grav_accel double
LOOKUP_TABLE default
1.93606e-05 -5.64796e-05 -5.63538e-05 -6.1776e-05 -7.07111e-05 -8.03218e-05 -8.62424e-05 4.51028e-06 1.68084e-05 2.91291e-05 4.74525e-05 3.22563e-05 2.00744e-05 9.8526e-06 7.20297e-06 9.20459e-06 1.2666e-05 -3.01313e-06 -6.29328e-06 2.09622e-06 1.36516e-05 1.46245e-05 -7.68587e-05 -6.25993e-05 -5.33269e-05 -5.15268e-05 -5.77722e-05 -6.86322e-05 -8.35102e-05 -9.5331e-05 -9.30277e-05 -8.02898e-05 -6.15806e-05 3.56834e-06 1.42041e-05 2.82708e-05 4.13353e-05 4.94119e-05 5.08131e-05 4.33812e-05 3.00443e-05 1.49533e-05 2.29564e-06 2.90015e-07 4.55843e-06 1.06048e-05 1.33405e-05 8.82759e-06 -1.1767e-06 -1.17566e-05 -1.75798e-05 -1.40528e-05 -4.40205e-06 5.63373e-06 1.29329e-05 1.60568e-05 -8.19094e-05 -7.71515e-05 -7.13324e-05 -5.77811e-05 -4.47456e-05 -3.83896e-05 -4.5859e-05 -6.28193e-05 -8.25623e-05 -9.75806e-05 -9.37053e-05 -8.02592e-05 -6.06705e-05 -3.98222e-05 -2.09709e-05 -4.81609e-06 7.15733e-06 1.82924e-05 3.31058e-05 4.42466e-05 5.15373e-05 5.1749e-05 4.29881e-05 2.78312e-05 1.15542e-05 -4.22483e-07 -3.33094e-06 2.9022e-06 1.12787e-05 1.60849e-05 1.02951e-05 -2.70938e-06 -1.59533e-05 -2.34884e-05 -2.05615e-05 -9.03137e-06 3.51608e-06 1.36592e-05 1.65922e-05 1.63558e-05 -9.36112e-05 -8.70034e-05 -7.98523e-05 -7.2375e-05 -5.53696e-05 -3.628e-05 -2.69446e-05 -3.44301e-05 -5.49333e-05 -7.60085e-05 -8.94183e-05 -8.9824e-05 -7.76815e-05 -5.87683e-05 -3.60214e-05 -1.78648e-05 -1.00647e-06 1.49127e-05 2.87265e-05 4.03679e-05 4.62766e-05 5.02369e-05 4.99528e-05 3.91676e-05 2.29829e-05 7.48179e-06 -1.55366e-06 -3.57269e-06 1.96678e-06 1.08811e-05 1.56591e-05 1.06639e-05 -2.10829e-06 -1.51657e-05 -2.32717e-05 -2.00623e-05 -9.70745e-06 7.52917e-07 9.96655e-06 1.36124e-05 1.37347e-05 -0.000103101 -0.000100204 -9.45165e-05 -8.20079e-05 -6.05135e-05 -3.65031e-05 -2.25949e-05 -2.99067e-05 -5.12997e-05 -7.28369e-05 -8.57292e-05 -8.64443e-05 -7.60726e-05 -5.95367e-05 -4.03463e-05 -2.07556e-05 -1.27523e-06 1.8824e-05 3.43029e-05 4.18254e-05 4.32901e-05 4.26232e-05 3.97477e-05 2.84269e-05 1.41006e-05 1.17574e-06 -6.82233e-06 -7.29546e-06 -1.24873e-06 8.33616e-06 1.43226e-05 9.59355e-06 -9.07379e-07 -1.02773e-05 -1.49723e-05 -1.40728e-05 -8.90129e-06 -3.14875e-06 2.81799e-06 7.8086e-06 1.07924e-05 9.67197e-06 -0.00011281 -0.00011437 -0.000110791 -9.63575e-05 -7.22835e-05 -4.64838e-05 -3.07681e-05 -3.83361e-05 -5.62886e-05 -7.47936e-05 -8.58707e-05 -8.73883e-05 -7.98563e-05 -6.63718e-05 -5.02467e-05 -2.96201e-05 -7.56685e-06 1.37916e-05 2.9304e-05 3.46156e-05 3.394e-05 2.95545e-05 2.35095e-05 1.48164e-05 3.29148e-06 -7.55395e-06 -1.3703e-05 -1.26313e-05 -5.83061e-06 2.94587e-06 8.16042e-06 6.02544e-06 -6.19663e-07 -6.77074e-06 -9.67104e-06 -1.06193e-05 -9.59394e-06 -7.26207e-06 -4.55743e-06 9.68407e-07 7.27581e-06 9.47883e-06 -0.000115547 -0.000121117 -0.000125856 -0.000124086 -0.000110436 -8.80766e-05 -6.6029e-05 -5.23869e-05 -5.54592e-05 -6.91712e-05 -8.35949e-05 -9.31402e-05 -9.39168e-05 -8.7411e-05 -7.61334e-05 -6.15919e-05 -4.19387e-05 -1.9414e-05 1.37058e-06 1.6421e-05 2.16011e-05 1.97168e-05 1.4622e-05 7.75371e-06 1.31132e-06 -6.83802e-06 -1.49136e-05 -1.88433e-05 -1.74519e-05 -1.06654e-05 -2.97888e-06 2.26888e-06 1.81965e-06 -2.24978e-06 -6.25827e-06 -8.60156e-06 -9.07378e-06 -8.83653e-06 -8.13991e-06 -6.1898e-06 -1.3828e-06 7.03992e-06 1.22055e-05 -0.000125679 -0.000131209 -0.000131396 -0.000121487 -0.000104041 -8.75125e-05 -7.70245e-05 -7.82874e-05 -8.7457e-05 -9.70453e-05 -0.000103162 -0.000102849 -9.66036e-05 -8.66336e-05 -7.30458e-05 -5.48455e-05 -3.34268e-05 -1.4367e-05 -5.93614e-07 4.44541e-06 3.50565e-06 1.12025e-07 -4.65239e-06 -9.11192e-06 -1.34015e-05 -1.91569e-05 -2.15782e-05 -1.93892e-05 -1.33412e-05 -7.51066e-06 -3.94259e-06 -3.39372e-06 -5.0691e-06 -6.63172e-06 -8.08007e-06 -7.3359e-06 -5.42862e-06 -3.82952e-06 -5.80305e-07 4.79009e-06 1.11938e-05 1.57147e-05 -0.000126866 -0.000131491 -0.000133493 -0.000126256 -0.000115625 -0.000106915 -0.000102215 -0.000102594 -0.000106852 -0.000112008 -0.000114788 -0.000113221 -0.000106805 -9.74404e-05 -8.44872e-05 -6.73497e-05 -4.80413e-05 -3.11906e-05 -1.92855e-05 -1.21605e-05 -1.05404e-05 -1.1925e-05 -1.42518e-05 -1.53765e-05 -1.5227e-05 -1.73344e-05 -1.72158e-05 -1.47991e-05 -1.11645e-05 -8.24074e-06 -6.9507e-06 -5.76056e-06 -5.47966e-06 -5.58881e-06 -5.78066e-06 -3.27513e-06 1.20139e-06 5.4878e-06 1.06099e-05 1.51205e-05 1.83737e-05 -0.000125884 -0.000126842 -0.000127032 -0.000125489 -0.000123222 -0.000123071 -0.000123366 -0.000123775 -0.000124877 -0.000126448 -0.000125781 -0.000122492 -0.000116136 -0.000107771 -9.60742e-05 -7.96164e-05 -6.12293e-05 -4.48786e-05 -3.33942e-05 -2.48943e-05 -2.12701e-05 -2.0965e-05 -2.0402e-05 -1.83343e-05 -1.26146e-05 -9.24452e-06 -6.49713e-06 -4.50933e-06 -3.90621e-06 -4.49833e-06 -5.09392e-06 -4.26506e-06 -3.06564e-06 -1.89204e-06 -6.86309e-08 3.53179e-06 9.75959e-06 1.67126e-05 2.32531e-05 2.62321e-05 2.63534e-05 2.57701e-05 -0.000124719 -0.000121922 -0.000120091 -0.000124036 -0.000129663 -0.000136333 -0.000141049 -0.000142531 -0.000141311 -0.000139463 -0.000135639 -0.000131243 -0.000124845 -0.000117238 -0.000106973 -8.9547e-05 -7.11197e-05 -5.45513e-05 -4.23146e-05 -3.31419e-05 -2.73506e-05 -2.52448e-05 -2.19871e-05 -1.54574e-05 -4.94563e-06 3.68052e-06 9.08181e-06 1.04887e-05 8.38967e-06 4.24768e-06 6.78364e-07 6.66666e-07 2.7778e-06 4.86068e-06 7.32864e-06 1.17052e-05 1.8742e-05 2.7061e-05 3.39116e-05 3.50236e-05 3.30419e-05 -0.000126323 -0.000121213 -0.0001181 -0.000124807 -0.000136345 -0.000148292 -0.000156741 -0.000158672 -0.000154946 -0.000150288 -0.000144532 -0.00013873 -0.000131605 -0.00012335 -0.000112865 -9.61874e-05 -7.69957e-05 -5.89398e-05 -4.49711e-05 -3.49933e-05 -2.78887e-05 -2.4391e-05 -1.87845e-05 -8.69942e-06 4.47991e-06 1.73772e-05 2.60946e-05 2.75141e-05 2.30876e-05 1.61428e-05 1.02424e-05 9.38436e-06 1.14025e-05 1.37688e-05 1.67917e-05 2.13073e-05 2.67101e-05 3.30423e-05 3.8264e-05 3.88141e-05 3.5925e-05 -0.000133302 -0.000128109 -0.000123956 -0.000131729 -0.000147121 -0.000161059 -0.000169869 -0.000170647 -0.000165166 -0.000158806 -0.000151753 -0.000143822 -0.000135565 -0.000126572 -0.000116396 -9.96282e-05 -7.84051e-05 -5.85493e-05 -4.28398e-05 -3.21578e-05 -2.44539e-05 -1.91497e-05 -1.23595e-05 -8.4627e-07 1.50345e-05 3.17138e-05 4.41575e-05 4.41238e-05 3.81812e-05 2.99598e-05 2.34463e-05 2.08305e-05 2.1196e-05 2.34893e-05 2.60168e-05 2.90066e-05 3.24335e-05 3.57389e-05 3.80615e-05 3.79973e-05 3.58115e-05 -0.000144011 -0.000141804 -0.000149465 -0.000162195 -0.000173441 -0.000179028 -0.000178417 -0.000171519 -0.000163 -0.000154873 -0.000145047 -0.000135845 -0.000126557 -0.000115785 -9.86975e-05 -7.67604e-05 -5.49071e-05 -3.6452e-05 -2.48699e-05 -1.75816e-05 -1.23102e-05 -5.93076e-06 7.20808e-06 2.51192e-05 4.3275e-05 5.62491e-05 5.77733e-05 5.13278e-05 4.27084e-05 3.51505e-05 3.1194e-05 2.98468e-05 3.10216e-05 3.29198e-05 3.49888e-05 3.6986e-05 3.79259e-05 3.76744e-05 3.68429e-05 3.50063e-05 -0.000165913 -0.000166776 -0.00016934 -0.000173782 -0.000179273 -0.000185359 -0.000187153 -0.000183327 -0.000174119 -0.000162964 -0.000152708 -0.000141889 -0.000132275 -0.000123032 -0.000112105 -9.55618e-05 -7.26986e-05 -4.86728e-05 -2.86638e-05 -1.69014e-05 -9.84647e-06 -4.25546e-06 2.67007e-06 1.58834e-05 3.44539e-05 5.2982e-05 6.64347e-05 6.84198e-05 6.12687e-05 5.2366e-05 4.40897e-05 3.927e-05 3.69528e-05 3.67434e-05 3.78297e-05 3.9387e-05 4.07049e-05 4.08844e-05 3.9586e-05 3.71239e-05 3.36776e-05 -0.000185507 -0.000189988 -0.000194272 -0.000195732 -0.000195194 -0.000195757 -0.000193343 -0.000186115 -0.000174436 -0.000160104 -0.000146858 -0.000135586 -0.000125864 -0.000117189 -0.000106715 -8.98503e-05 -6.73467e-05 -4.42318e-05 -2.48042e-05 -1.14719e-05 -2.90576e-06 3.96099e-06 1.19094e-05 2.42121e-05 4.26594e-05 6.05126e-05 7.28563e-05 7.43703e-05 6.72041e-05 5.83283e-05 4.97874e-05 4.4258e-05 4.13821e-05 4.03057e-05 4.07828e-05 4.27867e-05 4.41936e-05 4.42546e-05 4.22775e-05 3.77786e-05 3.13364e-05 -0.000202178 -0.000207537 -0.000210234 -0.000210094 -0.000206914 -0.000203456 -0.00019822 -0.000187842 -0.000172977 -0.000155872 -0.000140383 -0.000128201 -0.000118035 -0.000109041 -9.83857e-05 -8.26129e-05 -6.16495e-05 -4.02693e-05 -2.19115e-05 -7.66002e-06 2.41787e-06 1.04983e-05 1.96463e-05 3.20706e-05 4.83153e-05 6.46067e-05 7.56391e-05 7.7602e-05 6.98405e-05 6.02315e-05 5.16533e-05 4.61723e-05 4.3713e-05 4.3046e-05 4.38281e-05 4.57831e-05 4.73717e-05 4.73204e-05 4.4757e-05 3.74738e-05 2.6869e-05 1.68601e-05 -0.000215834 -0.000219769 -0.000220736 -0.000219025 -0.000214274 -0.000208576 -0.000200994 -0.00018752 -0.000170291 -0.000151631 -0.000134846 -0.000120838 -0.000109223 -9.95979e-05 -8.96802e-05 -7.44343e-05 -5.53629e-05 -3.63276e-05 -1.95706e-05 -5.763e-06 5.70784e-06 1.50036e-05 2.44321e-05 3.61596e-05 5.06916e-05 6.5929e-05 7.59763e-05 7.65803e-05 6.86981e-05 5.90601e-05 5.08051e-05 4.61114e-05 4.46251e-05 4.49784e-05 4.66665e-05 4.89907e-05 5.02392e-05 4.94375e-05 4.48577e-05 3.51496e-05 2.08805e-05 6.59397e-06 -0.000227608 -0.000229655 -0.000228912 -0.000225265 -0.000219174 -0.000211283 -0.000201694 -0.000186017 -0.000166493 -0.000146443 -0.000128552 -0.000113469 -0.000100586 -8.98565e-05 -7.9295e-05 -6.56808e-05 -4.95073e-05 -3.31976e-05 -1.78568e-05 -4.82613e-06 7.20652e-06 1.7167e-05 2.69044e-05 3.78546e-05 4.98599e-05 6.26952e-05 7.04493e-05 7.14226e-05 6.49994e-05 5.64402e-05 4.86948e-05 4.55811e-05 4.5249e-05 4.64054e-05 4.91866e-05 5.16079e-05 5.23908e-05 5.06794e-05 4.42912e-05 3.20931e-05 1.38129e-05 -6.61775e-06 -2.19463e-05 -0.00023843 -0.000239821 -0.000238001 -0.000232092 -0.000222948 -0.000211965 -0.000200695 -0.000182356 -0.000161336 -0.000141101 -0.000122929 -0.000106752 -9.25763e-05 -8.05691e-05 -7.01787e-05 -5.88182e-05 -4.51915e-05 -3.18143e-05 -1.84725e-05 -6.50857e-06 5.31517e-06 1.60295e-05 2.59645e-05 3.59477e-05 4.4775e-05 5.44054e-05 6.13964e-05 6.29009e-05 5.90784e-05 5.37202e-05 4.80946e-05 4.65363e-05 4.66272e-05 4.7545e-05 4.9562e-05 5.30218e-05 5.495e-05 5.39823e-05 4.72994e-05 3.22807e-05 8.98668e-06 -1.73278e-05 -3.72155e-05 -4.49263e-05 -0.000249112 -0.000251106 -0.000248654 -0.000239248 -0.000225934 -0.000210585 -0.000194847 -0.000176154 -0.00015542 -0.000135315 -0.000117323 -0.0001005 -8.5566e-05 -7.31661e-05 -6.29488e-05 -5.32442e-05 -4.24949e-05 -3.27628e-05 -2.21023e-05 -1.12565e-05 1.42983e-07 1.10386e-05 2.04976e-05 2.91035e-05 3.60844e-05 4.28274e-05 4.83481e-05 5.14816e-05 5.22016e-05 5.1961e-05 5.03394e-05 4.90028e-05 4.86412e-05 4.87241e-05 5.04235e-05 5.41348e-05 5.71783e-05 5.78704e-05 5.2053e-05 3.53634e-05 8.66641e-06 -2.15377e-05 -5.09348e-05 -5.18914e-05 -5.10395e-05 -4.97722e-05 -0.000258222 -0.000260459 -0.000258516 -0.00024513 -0.000226134 -0.000206562 -0.000189289 -0.000169624 -0.000148946 -0.00012985 -0.000113046 -9.65714e-05 -8.13402e-05 -6.83969e-05 -5.79965e-05 -5.05528e-05 -4.32221e-05 -3.6902e-05 -2.90337e-05 -1.91788e-05 -8.62619e-06 1.711e-06 1.04853e-05 1.85425e-05 2.50209e-05 3.03178e-05 3.52871e-05 4.16889e-05 4.67692e-05 5.06426e-05 5.25644e-05 5.20137e-05 5.09054e-05 5.06014e-05 5.19715e-05 5.53177e-05 5.86223e-05 6.04198e-05 5.65101e-05 3.9097e-05 1.29902e-05 -1.19571e-05 -3.42998e-05 -4.19671e-05 -4.52225e-05 -0.00026521 -0.000266565 -0.000264489 -0.000247295 -0.000223878 -0.000201164 -0.000180851 -0.000161163 -0.000142685 -0.000125926 -0.000111243 -9.5644e-05 -7.98896e-05 -6.66103e-05 -5.65465e-05 -5.11612e-05 -4.6969e-05 -4.35906e-05 -3.85756e-05 -3.01099e-05 -2.00199e-05 -1.02522e-05 -2.19651e-06 6.20392e-06 1.33959e-05 1.91716e-05 2.50878e-05 3.28633e-05 4.0621e-05 4.73551e-05 5.19552e-05 5.28994e-05 5.13314e-05 5.09934e-05 5.23562e-05 5.55381e-05 5.84767e-05 5.92537e-05 5.44049e-05 3.9938e-05 2.08e-05 4.70131e-06 -7.51825e-06 -2.23631e-05 -3.64238e-05 -4.55389e-05 -0.000268814 -0.000267913 -0.000262253 -0.00024594 -0.000221157 -0.000194985 -0.000171459 -0.000152814 -0.000138481 -0.000125304 -0.00011288 -9.85494e-05 -8.30597e-05 -7.00835e-05 -5.99073e-05 -5.57021e-05 -5.45351e-05 -5.37933e-05 -5.15736e-05 -4.35571e-05 -3.25089e-05 -2.25381e-05 -1.41108e-05 -4.9378e-06 2.91001e-06 9.38129e-06 1.5784e-05 2.46658e-05 3.40927e-05 4.22001e-05 4.71127e-05 4.90686e-05 4.93234e-05 4.97737e-05 5.1509e-05 5.42849e-05 5.6888e-05 5.69741e-05 5.19771e-05 4.11705e-05 2.75205e-05 1.65294e-05 8.61603e-06 -9.13538e-06 -2.94133e-05 -4.26358e-05 -0.000269722 -0.000266823 -0.000259007 -0.000244618 -0.000221494 -0.000193302 -0.000169228 -0.000151748 -0.000140615 -0.000130348 -0.000118782 -0.000106045 -9.1075e-05 -7.80604e-05 -6.81967e-05 -6.52227e-05 -6.5903e-05 -6.66864e-05 -6.52064e-05 -5.76111e-05 -4.58942e-05 -3.36109e-05 -2.27599e-05 -1.36234e-05 -5.54444e-06 1.01445e-06 7.3974e-06 1.71358e-05 2.71086e-05 3.51105e-05 4.05948e-05 4.39856e-05 4.6298e-05 4.74703e-05 4.91481e-05 5.25133e-05 5.57122e-05 5.6369e-05 5.19171e-05 4.16717e-05 2.90679e-05 1.74971e-05 5.35743e-06 -1.01823e-05 -2.98455e-05 -0.000266586 -0.000258717 -0.000245704 -0.000228463 -0.000204334 -0.000181923 -0.000164867 -0.000153668 -0.000143466 -0.000131176 -0.000118491 -0.000104034 -9.11775e-05 -8.26669e-05 -7.93661e-05 -8.0022e-05 -8.15818e-05 -8.0955e-05 -7.35108e-05 -6.01284e-05 -4.53478e-05 -3.19334e-05 -2.20105e-05 -1.35605e-05 -6.23558e-06 1.41826e-06 1.09949e-05 2.12085e-05 2.94845e-05 3.55537e-05 4.03506e-05 4.39206e-05 4.56826e-05 4.73731e-05 5.17509e-05 5.5532e-05 5.7091e-05 5.35505e-05 4.31357e-05 2.73089e-05 1.05818e-05 -6.23136e-06 -2.10561e-05 -3.50242e-05 -4.57751e-05 -0.000272412 -0.00026909 -0.000263936 -0.000255528 -0.000245464 -0.000228761 -0.000209301 -0.000193856 -0.000179519 -0.000165794 -0.000151004 -0.000136282 -0.000121294 -0.000107358 -9.7665e-05 -9.41853e-05 -9.56335e-05 -9.87431e-05 -9.86655e-05 -9.05662e-05 -7.63144e-05 -6.01397e-05 -4.46711e-05 -3.25151e-05 -2.24165e-05 -1.29334e-05 -3.44942e-06 6.34749e-06 1.63685e-05 2.49403e-05 3.19368e-05 3.80626e-05 4.27897e-05 4.61154e-05 4.88768e-05 5.32857e-05 5.79296e-05 6.03328e-05 5.75233e-05 4.53757e-05 2.62499e-05 4.67346e-06 -1.48769e-05 -2.98852e-05 -3.94977e-05 -0.00027622 -0.000275175 -0.000274017 -0.000271896 -0.000267801 -0.000260352 -0.000248558 -0.000232624 -0.000213718 -0.000194675 -0.000176759 -0.000158849 -0.00014115 -0.000124822 -0.00011336 -0.00010958 -0.000111846 -0.000115781 -0.000116268 -0.00010853 -9.36152e-05 -7.61985e-05 -6.0288e-05 -4.52606e-05 -3.2318e-05 -2.06114e-05 -9.63939e-06 9.42755e-07 1.07014e-05 2.07157e-05 2.98212e-05 3.7271e-05 4.33124e-05 4.79724e-05 5.18424e-05 5.66162e-05 6.12532e-05 6.36298e-05 6.06451e-05 4.86733e-05 2.80691e-05 3.87392e-06 -1.75488e-05 -3.16699e-05 -3.99245e-05 -4.52737e-05 -0.000279864 -0.000281697 -0.000284152 -0.00028785 -0.000291538 -0.000293303 -0.000289322 -0.000271794 -0.00024895 -0.000226835 -0.000206181 -0.000185158 -0.000163469 -0.000143949 -0.00012964 -0.000124695 -0.000127397 -0.000132587 -0.000134399 -0.000125092 -0.000109299 -9.06731e-05 -7.40605e-05 -5.76293e-05 -4.22743e-05 -2.95894e-05 -1.89688e-05 -8.34192e-06 3.33939e-06 1.56395e-05 2.7098e-05 3.57695e-05 4.30763e-05 4.93054e-05 5.48178e-05 5.98913e-05 6.45203e-05 6.71324e-05 6.46374e-05 5.30695e-05 3.20693e-05 8.56941e-06 -1.23178e-05 -2.61762e-05 -3.5383e-05 -0.000282711 -0.000285991 -0.000291132 -0.000300568 -0.000312018 -0.000320796 -0.000320095 -0.000305257 -0.000282532 -0.000258252 -0.000234699 -0.000210845 -0.000184668 -0.000161214 -0.000144309 -0.000139109 -0.000141735 -0.000146409 -0.00014776 -0.000137618 -0.000120359 -9.99722e-05 -8.12503e-05 -6.47389e-05 -4.96791e-05 -3.88172e-05 -2.97281e-05 -1.90793e-05 -5.56209e-06 8.5449e-06 2.15978e-05 3.23296e-05 4.13603e-05 4.96122e-05 5.71693e-05 6.2342e-05 6.66388e-05 6.92655e-05 6.63868e-05 5.51243e-05 3.65533e-05 1.56831e-05 -3.44096e-06 -1.85712e-05 -2.8925e-05 -0.00028394 -0.000287283 -0.000294006 -0.000307738 -0.000326215 -0.000343287 -0.000349318 -0.000336312 -0.000311479 -0.000285086 -0.00025901 -0.000232464 -0.00020343 -0.000178115 -0.000159777 -0.000152192 -0.00015315 -0.000156125 -0.000157275 -0.000145568 -0.000124965 -0.00010259 -8.21078e-05 -6.58768e-05 -5.33102e-05 -4.48038e-05 -3.73616e-05 -2.71664e-05 -1.31527e-05 1.91447e-06 1.57281e-05 2.72878e-05 3.76076e-05 4.71206e-05 5.54313e-05 6.17076e-05 6.61395e-05 6.93927e-05 6.77184e-05 5.80885e-05 4.13124e-05 2.20111e-05 4.1305e-06 -1.06538e-05 -2.13041e-05 -0.000284356 -0.000288012 -0.000294399 -0.000312796 -0.000338614 -0.000362427 -0.000375077 -0.000361056 -0.00033237 -0.00030436 -0.00027559 -0.000247401 -0.000217279 -0.000190727 -0.000171212 -0.000161227 -0.000160223 -0.000160243 -0.000158311 -0.000144876 -0.000122936 -9.93775e-05 -7.77913e-05 -6.23463e-05 -5.24117e-05 -4.60283e-05 -4.04352e-05 -3.04142e-05 -1.72091e-05 -3.06356e-06 9.90022e-06 2.14061e-05 3.18739e-05 4.15547e-05 4.97502e-05 5.69e-05 6.31382e-05 6.83464e-05 6.82983e-05 5.98459e-05 4.4986e-05 2.78029e-05 1.07347e-05 -2.54986e-06 -1.30009e-05 -0.000285128 -0.000289957 -0.000298305 -0.000317901 -0.000344543 -0.000369584 -0.000382328 -0.000372388 -0.000341636 -0.000311652 -0.000282924 -0.000253932 -0.000224542 -0.000198848 -0.00017975 -0.000167807 -0.00016209 -0.000157621 -0.000151561 -0.000138081 -0.000115643 -9.12039e-05 -6.98123e-05 -5.61807e-05 -4.82997e-05 -4.30954e-05 -3.78515e-05 -2.9185e-05 -1.77212e-05 -5.41973e-06 5.59968e-06 1.59224e-05 2.53014e-05 3.37533e-05 4.09631e-05 4.84678e-05 5.66569e-05 6.41515e-05 6.68641e-05 6.08989e-05 4.86691e-05 3.42397e-05 1.96694e-05 7.18115e-06 -3.80609e-06 -1.31195e-05 -2.01279e-05 -0.000285256 -0.000291881 -0.000302477 -0.000319192 -0.000342339 -0.000366211 -0.000378807 -0.000367387 -0.000337725 -0.000307813 -0.000279664 -0.00025196 -0.000225427 -0.000201913 -0.000183881 -0.000168949 -0.000157885 -0.00014934 -0.000140049 -0.000125212 -0.000103906 -8.1207e-05 -6.20468e-05 -4.94164e-05 -4.25083e-05 -3.79632e-05 -3.34544e-05 -2.56155e-05 -1.50424e-05 -4.55237e-06 4.34962e-06 1.25496e-05 1.96811e-05 2.55709e-05 3.09919e-05 3.82275e-05 4.82625e-05 5.82588e-05 6.4726e-05 5.91595e-05 5.03364e-05 4.0373e-05 2.97119e-05 1.83786e-05 6.05569e-06 -5.353e-06 -1.45747e-05 -2.00583e-05 -2.17961e-05 -2.03877e-05 -0.000283738 -0.000290251 -0.000299875 -0.000314177 -0.000332351 -0.000351147 -0.000358184 -0.0003485 -0.000323966 -0.000295631 -0.000269 -0.000244309 -0.000220401 -0.000199161 -0.00018261 -0.000165564 -0.000149906 -0.000136975 -0.000124092 -0.000109184 -9.08071e-05 -7.09778e-05 -5.39439e-05 -4.29246e-05 -3.65834e-05 -3.20186e-05 -2.68824e-05 -1.92204e-05 -9.74066e-06 -4.42922e-07 7.21065e-06 1.26644e-05 1.61502e-05 1.78715e-05 1.99323e-05 2.71973e-05 3.91975e-05 4.98466e-05 5.37551e-05 5.39817e-05 5.11001e-05 4.65208e-05 3.93872e-05 2.96213e-05 1.52549e-05 7.08646e-07 -1.1013e-05 -1.72489e-05 -1.79371e-05 -1.54962e-05 -0.000279175 -0.000284781 -0.000292328 -0.000303409 -0.000315849 -0.000328921 -0.000334001 -0.000325783 -0.000304263 -0.000278998 -0.000254739 -0.000232444 -0.000210716 -0.000190941 -0.000173639 -0.000156152 -0.000137242 -0.000121304 -0.000107289 -9.33988e-05 -7.77248e-05 -6.15508e-05 -4.7539e-05 -3.80719e-05 -3.14321e-05 -2.62597e-05 -2.04781e-05 -1.27553e-05 -3.12915e-06 6.35592e-06 1.31928e-05 1.62538e-05 1.61042e-05 1.38647e-05 1.33432e-05 2.14978e-05 3.39463e-05 4.54505e-05 5.12649e-05 5.19568e-05 5.29038e-05 5.28228e-05 5.05666e-05 4.16058e-05 2.36372e-05 5.51001e-06 -8.58116e-06 -1.43904e-05 -1.33891e-05 -0.000272702 -0.000276039 -0.000279849 -0.000287382 -0.000296033 -0.000304097 -0.000306253 -0.00029791 -0.000280978 -0.000261072 -0.000240166 -0.000219999 -0.000198686 -0.000178376 -0.000159861 -0.00014142 -0.000122272 -0.000105608 -9.17019e-05 -7.88814e-05 -6.61505e-05 -5.38379e-05 -4.24887e-05 -3.39671e-05 -2.71308e-05 -2.15317e-05 -1.53768e-05 -6.78514e-06 3.74106e-06 1.38215e-05 2.06934e-05 2.24076e-05 1.96766e-05 1.58904e-05 1.4915e-05 2.21274e-05 3.4667e-05 4.61635e-05 5.24378e-05 5.32207e-05 5.34638e-05 5.58072e-05 5.56203e-05 4.73262e-05 2.83298e-05 9.31865e-06 -5.50938e-06 -8.02635e