# vtk DataFile Version 2.0
3D Data
ASCII
DATASET UNSTRUCTURED_GRID
POINTS 7822 double 
-1.6705e+06 1.7245e+06 -509.391
-1.681e+06 1.725e+06 -495.578
-1.6805e+06 1.725e+06 -498.077
-1.68e+06 1.725e+06 -501.505
-1.6795e+06 1.725e+06 -504.916
-1.679e+06 1.725e+06 -508.17
-1.6785e+06 1.725e+06 -510.316
-1.675e+06 1.725e+06 -509.295
-1.6745e+06 1.725e+06 -510.295
-1.674e+06 1.725e+06 -512.019
-1.6725e+06 1.725e+06 -512.666
-1.6715e+06 1.725e+06 -510.858
-1.671e+06 1.725e+06 -509.621
-1.6705e+06 1.725e+06 -508.618
-1.67e+06 1.725e+06 -508.37
-1.6695e+06 1.725e+06 -507.567
-1.669e+06 1.725e+06 -507.459
-1.667e+06 1.725e+06 -507.746
-1.6665e+06 1.725e+06 -506.999
-1.6655e+06 1.725e+06 -506.947
-1.6645e+06 1.725e+06 -507.705
-1.664e+06 1.725e+06 -507.67
-1.682e+06 1.7255e+06 -496.821
-1.6815e+06 1.7255e+06 -495.757
-1.681e+06 1.7255e+06 -495.679
-1.6805e+06 1.7255e+06 -496.839
-1.68e+06 1.7255e+06 -499.472
-1.6795e+06 1.7255e+06 -503.383
-1.679e+06 1.7255e+06 -507.046
-1.6785e+06 1.7255e+06 -509.613
-1.678e+06 1.7255e+06 -510.301
-1.6775e+06 1.7255e+06 -509.837
-1.677e+06 1.7255e+06 -509.085
-1.675e+06 1.7255e+06 -506.487
-1.6745e+06 1.7255e+06 -506.753
-1.674e+06 1.7255e+06 -508.163
-1.6735e+06 1.7255e+06 -510.887
-1.673e+06 1.7255e+06 -512.067
-1.6725e+06 1.7255e+06 -512.484
-1.672e+06 1.7255e+06 -511.669
-1.6715e+06 1.7255e+06 -510.418
-1.671e+06 1.7255e+06 -509.034
-1.6705e+06 1.7255e+06 -507.889
-1.67e+06 1.7255e+06 -507.644
-1.6695e+06 1.7255e+06 -507.594
-1.669e+06 1.7255e+06 -507.767
-1.6685e+06 1.7255e+06 -508.586
-1.668e+06 1.7255e+06 -509.57
-1.6675e+06 1.7255e+06 -508.841
-1.667e+06 1.7255e+06 -507.719
-1.6665e+06 1.7255e+06 -506.831
-1.666e+06 1.7255e+06 -506.5
-1.6655e+06 1.7255e+06 -506.644
-1.665e+06 1.7255e+06 -507.187
-1.6645e+06 1.7255e+06 -507.502
-1.664e+06 1.7255e+06 -507.577
-1.683e+06 1.726e+06 -498.039
-1.6825e+06 1.726e+06 -497.638
-1.682e+06 1.726e+06 -496.933
-1.6815e+06 1.726e+06 -495.541
-1.681e+06 1.726e+06 -494.518
-1.6805e+06 1.726e+06 -494.825
-1.68e+06 1.726e+06 -497.772
-1.6795e+06 1.726e+06 -502.31
-1.679e+06 1.726e+06 -506.511
-1.6785e+06 1.726e+06 -509.402
-1.678e+06 1.726e+06 -510.331
-1.6775e+06 1.726e+06 -509.89
-1.677e+06 1.726e+06 -508.882
-1.6765e+06 1.726e+06 -507.964
-1.676e+06 1.726e+06 -507.312
-1.6755e+06 1.726e+06 -506.566
-1.675e+06 1.726e+06 -505.644
-1.6745e+06 1.726e+06 -505.398
-1.674e+06 1.726e+06 -506.784
-1.6735e+06 1.726e+06 -509.422
-1.673e+06 1.726e+06 -511.169
-1.6725e+06 1.726e+06 -511.829
-1.672e+06 1.726e+06 -511.361
-1.6715e+06 1.726e+06 -510.11
-1.671e+06 1.726e+06 -508.64
-1.6705e+06 1.726e+06 -507.411
-1.67e+06 1.726e+06 -507.029
-1.6695e+06 1.726e+06 -507.571
-1.669e+06 1.726e+06 -508.186
-1.6685e+06 1.726e+06 -508.869
-1.668e+06 1.726e+06 -509.462
-1.6675e+06 1.726e+06 -508.992
-1.667e+06 1.726e+06 -507.869
-1.6665e+06 1.726e+06 -506.878
-1.666e+06 1.726e+06 -506.434
-1.6655e+06 1.726e+06 -506.523
-1.665e+06 1.726e+06 -506.947
-1.6645e+06 1.726e+06 -507.307
-1.664e+06 1.726e+06 -507.535
-1.6635e+06 1.726e+06 -507.545
-1.6835e+06 1.7265e+06 -499.153
-1.683e+06 1.7265e+06 -498.551
-1.6825e+06 1.7265e+06 -497.984
-1.682e+06 1.7265e+06 -497.025
-1.6815e+06 1.7265e+06 -495.386
-1.681e+06 1.7265e+06 -494.058
-1.6805e+06 1.7265e+06 -494.545
-1.68e+06 1.7265e+06 -497.578
-1.6795e+06 1.7265e+06 -501.867
-1.679e+06 1.7265e+06 -506.205
-1.6785e+06 1.7265e+06 -509.406
-1.678e+06 1.7265e+06 -510.527
-1.6775e+06 1.7265e+06 -510.074
-1.677e+06 1.7265e+06 -508.913
-1.6765e+06 1.7265e+06 -507.915
-1.676e+06 1.7265e+06 -507.169
-1.6755e+06 1.7265e+06 -506.569
-1.675e+06 1.7265e+06 -506.104
-1.6745e+06 1.7265e+06 -506.179
-1.674e+06 1.7265e+06 -507.071
-1.6735e+06 1.7265e+06 -508.963
-1.673e+06 1.7265e+06 -510.835
-1.6725e+06 1.7265e+06 -511.78
-1.672e+06 1.7265e+06 -511.293
-1.6715e+06 1.7265e+06 -509.935
-1.671e+06 1.7265e+06 -508.387
-1.6705e+06 1.7265e+06 -507.211
-1.67e+06 1.7265e+06 -507.051
-1.6695e+06 1.7265e+06 -507.67
-1.669e+06 1.7265e+06 -508.494
-1.6685e+06 1.7265e+06 -509.414
-1.668e+06 1.7265e+06 -510.035
-1.6675e+06 1.7265e+06 -509.214
-1.667e+06 1.7265e+06 -507.866
-1.6665e+06 1.7265e+06 -506.7
-1.666e+06 1.7265e+06 -506.406
-1.6655e+06 1.7265e+06 -506.542
-1.665e+06 1.7265e+06 -506.962
-1.6645e+06 1.7265e+06 -507.268
-1.664e+06 1.7265e+06 -507.555
-1.6635e+06 1.7265e+06 -507.722
-1.6835e+06 1.727e+06 -499.886
-1.683e+06 1.727e+06 -499.328
-1.6825e+06 1.727e+06 -498.569
-1.682e+06 1.727e+06 -497.304
-1.6815e+06 1.727e+06 -495.64
-1.681e+06 1.727e+06 -494.532
-1.6805e+06 1.727e+06 -494.938
-1.68e+06 1.727e+06 -497.602
-1.6795e+06 1.727e+06 -501.783
-1.679e+06 1.727e+06 -506.173
-1.6785e+06 1.727e+06 -509.307
-1.678e+06 1.727e+06 -510.5
-1.6775e+06 1.727e+06 -510.056
-1.677e+06 1.727e+06 -508.81
-1.6765e+06 1.727e+06 -507.687
-1.676e+06 1.727e+06 -507.073
-1.6755e+06 1.727e+06 -506.762
-1.675e+06 1.727e+06 -506.876
-1.6745e+06 1.727e+06 -507.211
-1.674e+06 1.727e+06 -507.642
-1.6735e+06 1.727e+06 -509.178
-1.673e+06 1.727e+06 -510.796
-1.6725e+06 1.727e+06 -511.683
-1.672e+06 1.727e+06 -511.069
-1.6715e+06 1.727e+06 -509.738
-1.671e+06 1.727e+06 -508.305
-1.6705e+06 1.727e+06 -507.341
-1.67e+06 1.727e+06 -507.262
-1.6695e+06 1.727e+06 -507.914
-1.669e+06 1.727e+06 -508.964
-1.6685e+06 1.727e+06 -509.872
-1.668e+06 1.727e+06 -510.157
-1.6675e+06 1.727e+06 -509.232
-1.667e+06 1.727e+06 -507.908
-1.6665e+06 1.727e+06 -506.892
-1.666e+06 1.727e+06 -506.483
-1.6655e+06 1.727e+06 -506.616
-1.665e+06 1.727e+06 -507.083
-1.6645e+06 1.727e+06 -507.606
-1.664e+06 1.727e+06 -507.781
-1.6635e+06 1.727e+06 -507.862
-1.663e+06 1.727e+06 -507.914
-1.6835e+06 1.7275e+06 -500.466
-1.683e+06 1.7275e+06 -499.869
-1.6825e+06 1.7275e+06 -498.899
-1.682e+06 1.7275e+06 -497.497
-1.6815e+06 1.7275e+06 -495.852
-1.681e+06 1.7275e+06 -494.886
-1.6805e+06 1.7275e+06 -495.197
-1.68e+06 1.7275e+06 -497.8
-1.6795e+06 1.7275e+06 -501.814
-1.679e+06 1.7275e+06 -506.044
-1.6785e+06 1.7275e+06 -509.336
-1.678e+06 1.7275e+06 -510.592
-1.6775e+06 1.7275e+06 -510.058
-1.677e+06 1.7275e+06 -508.637
-1.6765e+06 1.7275e+06 -507.227
-1.676e+06 1.7275e+06 -506.755
-1.6755e+06 1.7275e+06 -506.755
-1.675e+06 1.7275e+06 -507.042
-1.6745e+06 1.7275e+06 -507.494
-1.674e+06 1.7275e+06 -508.157
-1.6735e+06 1.7275e+06 -509.438
-1.673e+06 1.7275e+06 -510.74
-1.6725e+06 1.7275e+06 -511.364
-1.672e+06 1.7275e+06 -510.877
-1.6715e+06 1.7275e+06 -509.644
-1.671e+06 1.7275e+06 -508.21
-1.6705e+06 1.7275e+06 -507.15
-1.67e+06 1.7275e+06 -507.253
-1.6695e+06 1.7275e+06 -508.145
-1.669e+06 1.7275e+06 -509.262
-1.6685e+06 1.7275e+06 -510.013
-1.668e+06 1.7275e+06 -509.978
-1.6675e+06 1.7275e+06 -509.141
-1.667e+06 1.7275e+06 -507.903
-1.6665e+06 1.7275e+06 -506.789
-1.666e+06 1.7275e+06 -506.474
-1.6655e+06 1.7275e+06 -506.647
-1.665e+06 1.7275e+06 -507.109
-1.6645e+06 1.7275e+06 -507.531
-1.664e+06 1.7275e+06 -507.778
-1.6635e+06 1.7275e+06 -507.937
-1.663e+06 1.7275e+06 -508.01
-1.684e+06 1.728e+06 -501.369
-1.6835e+06 1.728e+06 -500.909
-1.683e+06 1.728e+06 -500.183
-1.6825e+06 1.728e+06 -499.009
-1.682e+06 1.728e+06 -497.456
-1.6815e+06 1.728e+06 -495.9
-1.681e+06 1.728e+06 -495.164
-1.6805e+06 1.728e+06 -495.693
-1.68e+06 1.728e+06 -497.727
-1.6795e+06 1.728e+06 -501.576
-1.679e+06 1.728e+06 -505.901
-1.6785e+06 1.728e+06 -509.498
-1.678e+06 1.728e+06 -510.673
-1.6775e+06 1.728e+06 -510.042
-1.677e+06 1.728e+06 -508.58
-1.6765e+06 1.728e+06 -507.233
-1.676e+06 1.728e+06 -506.643
-1.6755e+06 1.728e+06 -506.644
-1.675e+06 1.728e+06 -506.983
-1.6745e+06 1.728e+06 -507.516
-1.674e+06 1.728e+06 -508.326
-1.6735e+06 1.728e+06 -509.596
-1.673e+06 1.728e+06 -510.811
-1.6725e+06 1.728e+06 -511.488
-1.672e+06 1.728e+06 -510.772
-1.6715e+06 1.728e+06 -509.508
-1.671e+06 1.728e+06 -508.2
-1.6705e+06 1.728e+06 -507.361
-1.67e+06 1.728e+06 -507.409
-1.6695e+06 1.728e+06 -508.306
-1.669e+06 1.728e+06 -509.39
-1.6685e+06 1.728e+06 -510.044
-1.668e+06 1.728e+06 -509.849
-1.6675e+06 1.728e+06 -509.05
-1.667e+06 1.728e+06 -507.966
-1.6665e+06 1.728e+06 -507.03
-1.666e+06 1.728e+06 -506.585
-1.6655e+06 1.728e+06 -506.657
-1.665e+06 1.728e+06 -507.028
-1.6645e+06 1.728e+06 -507.449
-1.664e+06 1.728e+06 -507.789
-1.6635e+06 1.728e+06 -508.022
-1.663e+06 1.728e+06 -508.11
-1.6835e+06 1.7285e+06 -501.223
-1.683e+06 1.7285e+06 -500.354
-1.6825e+06 1.7285e+06 -498.978
-1.682e+06 1.7285e+06 -497.187
-1.6815e+06 1.7285e+06 -495.373
-1.681e+06 1.7285e+06 -494.319
-1.6805e+06 1.7285e+06 -495.328
-1.68e+06 1.7285e+06 -496.626
-1.6795e+06 1.7285e+06 -500.528
-1.679e+06 1.7285e+06 -505.269
-1.6785e+06 1.7285e+06 -508.906
-1.678e+06 1.7285e+06 -510.414
-1.6775e+06 1.7285e+06 -510.062
-1.677e+06 1.7285e+06 -508.713
-1.6765e+06 1.7285e+06 -507.285
-1.676e+06 1.7285e+06 -506.537
-1.6755e+06 1.7285e+06 -506.494
-1.675e+06 1.7285e+06 -506.896
-1.6745e+06 1.7285e+06 -507.561
-1.674e+06 1.7285e+06 -508.469
-1.6735e+06 1.7285e+06 -509.657
-1.673e+06 1.7285e+06 -510.667
-1.6725e+06 1.7285e+06 -511.004
-1.672e+06 1.7285e+06 -510.457
-1.6715e+06 1.7285e+06 -509.438
-1.671e+06 1.7285e+06 -508.314
-1.6705e+06 1.7285e+06 -507.572
-1.67e+06 1.7285e+06 -507.594
-1.6695e+06 1.7285e+06 -508.459
-1.669e+06 1.7285e+06 -509.417
-1.6685e+06 1.7285e+06 -509.859
-1.668e+06 1.7285e+06 -509.694
-1.6675e+06 1.7285e+06 -508.997
-1.667e+06 1.7285e+06 -508.051
-1.6665e+06 1.7285e+06 -507.135
-1.666e+06 1.7285e+06 -506.569
-1.6655e+06 1.7285e+06 -506.648
-1.665e+06 1.7285e+06 -507.057
-1.6645e+06 1.7285e+06 -507.551
-1.664e+06 1.7285e+06 -507.928
-1.6635e+06 1.7285e+06 -508.131
-1.663e+06 1.7285e+06 -508.19
-1.6835e+06 1.729e+06 -501.559
-1.683e+06 1.729e+06 -500.607
-1.6825e+06 1.729e+06 -498.998
-1.682e+06 1.729e+06 -496.759
-1.6815e+06 1.729e+06 -494.397
-1.681e+06 1.729e+06 -492.484
-1.6805e+06 1.729e+06 -491.862
-1.68e+06 1.729e+06 -494.355
-1.6795e+06 1.729e+06 -499.18
-1.679e+06 1.729e+06 -504.527
-1.6785e+06 1.729e+06 -508.821
-1.678e+06 1.729e+06 -510.607
-1.6775e+06 1.729e+06 -510.275
-1.677e+06 1.729e+06 -508.847
-1.6765e+06 1.729e+06 -507.358
[...]
POINT_DATA 7822
SCALARS grav_accel double
LOOKUP_TABLE default
1.42051e-05 -7.17326e-05 -6.75737e-05 -6.36723e-05 -5.9877e-05 -5.59385e-05 -5.15954e-05 -8.33112e-06 -2.43232e-06 2.68162e-06 1.26829e-05 1.51518e-05 1.54692e-05 1.54004e-05 1.50932e-05 1.4655e-05 1.41184e-05 1.18428e-05 1.16094e-05 1.17918e-05 1.28901e-05 1.35749e-05 -8.30673e-05 -7.8329e-05 -7.37959e-05 -6.96125e-05 -6.57804e-05 -6.21167e-05 -5.83019e-05 -5.39984e-05 -4.89637e-05 -4.31162e-05 -3.65347e-05 -7.58844e-06 -1.20062e-06 4.28454e-06 8.72964e-06 1.21365e-05 1.45139e-05 1.59504e-05 1.65918e-05 1.66474e-05 1.63361e-05 1.5833e-05 1.52412e-05 1.45763e-05 1.38222e-05 1.30035e-05 1.22199e-05 1.16021e-05 1.1235e-05 1.11527e-05 1.13893e-05 1.19219e-05 1.2632e-05 1.33995e-05 -9.56109e-05 -9.09301e-05 -8.60607e-05 -8.11874e-05 -7.65409e-05 -7.23038e-05 -6.84959e-05 -6.49069e-05 -6.11617e-05 -5.6859e-05 -5.17046e-05 -4.559e-05 -3.85987e-05 -3.09621e-05 -2.29969e-05 -1.50551e-05 -7.49874e-06 -6.74527e-07 5.14209e-06 9.80352e-06 1.3295e-05 1.56496e-05 1.69759e-05 1.74603e-05 1.73484e-05 1.68941e-05 1.62903e-05 1.56291e-05 1.49097e-05 1.40897e-05 1.31719e-05 1.22481e-05 1.14695e-05 1.09788e-05 1.08583e-05 1.1122e-05 1.17027e-05 1.24714e-05 1.3303e-05 1.41153e-05 -0.000103785 -9.94854e-05 -9.48291e-05 -8.99237e-05 -8.49705e-05 -8.0231e-05 -7.59217e-05 -7.20764e-05 -6.84738e-05 -6.47081e-05 -6.03364e-05 -5.50294e-05 -4.86568e-05 -4.12994e-05 -3.32101e-05 -2.47475e-05 -1.63155e-05 -8.31861e-06 -1.12269e-06 4.99557e-06 9.87387e-06 1.34804e-05 1.58757e-05 1.71996e-05 1.76604e-05 1.75257e-05 1.7065e-05 1.64758e-05 1.58446e-05 1.51532e-05 1.43446e-05 1.34118e-05 1.24428e-05 1.15954e-05 1.10382e-05 1.08793e-05 1.11293e-05 1.17096e-05 1.2492e-05 1.33518e-05 1.42008e-05 -0.000108199 -0.000104106 -9.9597e-05 -9.47681e-05 -8.98257e-05 -8.50482e-05 -8.06694e-05 -7.67355e-05 -7.30298e-05 -6.9139e-05 -6.46096e-05 -5.91006e-05 -5.24693e-05 -4.47883e-05 -3.63141e-05 -2.74286e-05 -1.85707e-05 -1.01816e-05 -2.64232e-06 3.76891e-06 8.87872e-06 1.26662e-05 1.52087e-05 1.66697e-05 1.72667e-05 1.72726e-05 1.69534e-05 1.65001e-05 1.59899e-05 1.53989e-05 1.46719e-05 1.38012e-05 1.28717e-05 1.20401e-05 1.14766e-05 1.12925e-05 1.15039e-05 1.20421e-05 1.27918e-05 1.36355e-05 1.44814e-05 1.52717e-05 -0.000113193 -0.000109416 -0.000105182 -0.000100564 -9.57573e-05 -9.10347e-05 -8.66268e-05 -8.2583e-05 -7.86988e-05 -7.45819e-05 -6.97997e-05 -6.40249e-05 -5.71151e-05 -4.91322e-05 -4.03219e-05 -3.10697e-05 -2.18323e-05 -1.30709e-05 -5.18535e-06 1.5369e-06 6.9386e-06 1.10065e-05 1.38332e-05 1.5588e-05 1.64934e-05 1.68068e-05 1.67716e-05 1.65583e-05 1.62397e-05 1.57998e-05 1.51964e-05 1.44322e-05 1.35925e-05 1.28307e-05 1.23084e-05 1.21288e-05 1.23067e-05 1.27858e-05 1.34696e-05 1.42518e-05 1.50399e-05 1.57683e-05 -0.000121602 -0.000118652 -0.000115276 -0.000111431 -0.000107162 -0.000102634 -9.80876e-05 -9.37223e-05 -8.95754e-05 -8.54623e-05 -8.10337e-05 -7.59065e-05 -6.9793e-05 -6.25635e-05 -5.42717e-05 -4.51459e-05 -3.55571e-05 -2.5962e-05 -1.6831e-05 -8.57263e-06 -1.47716e-06 4.30859e-06 8.78209e-06 1.20433e-05 1.42669e-05 1.56517e-05 1.64233e-05 1.67901e-05 1.69002e-05 1.68198e-05 1.65487e-05 1.60686e-05 1.54025e-05 1.46424e-05 1.39522e-05 1.3505e-05 1.33826e-05 1.35614e-05 1.39904e-05 1.45926e-05 1.52715e-05 1.59317e-05 1.65103e-05 -0.000124459 -0.000121536 -0.000118163 -0.00011436 -0.000110245 -0.000105996 -0.000101755 -9.75363e-05 -9.31682e-05 -8.83609e-05 -8.28069e-05 -7.62754e-05 -6.86656e-05 -6.00299e-05 -5.05754e-05 -4.06483e-05 -3.06915e-05 -2.11703e-05 -1.24917e-05 -4.94171e-06 1.34147e-06 6.36095e-06 1.0218e-05 1.30666e-05 1.50808e-05 1.64404e-05 1.73059e-05 1.77949e-05 1.79693e-05 1.78477e-05 1.74299e-05 1.67696e-05 1.59957e-05 1.53087e-05 1.4949e-05 1.49698e-05 1.52032e-05 1.56122e-05 1.61402e-05 1.66913e-05 1.71659e-05 1.75554e-05 -0.00013054 -0.000128092 -0.000125239 -0.00012198 -0.000118376 -0.000114526 -0.000110496 -0.000106241 -0.000101606 -9.63685e-05 -9.03075e-05 -8.32724e-05 -7.5208e-05 -6.61697e-05 -5.63406e-05 -4.60371e-05 -3.56785e-05 -2.57156e-05 -1.65475e-05 -8.45362e-06 -1.56434e-06 4.12549e-06 8.71044e-06 1.23238e-05 1.50949e-05 1.71454e-05 1.85809e-05 1.9482e-05 1.99031e-05 1.98742e-05 1.94075e-05 1.86705e-05 1.79284e-05 1.73123e-05 1.69923e-05 1.70201e-05 1.72775e-05 1.76831e-05 1.81382e-05 1.85331e-05 1.87999e-05 -0.000136887 -0.000134922 -0.000132607 -0.000129926 -0.000126887 -0.000123508 -0.000119766 -0.000115542 -0.000110656 -0.000104949 -9.8295e-05 -9.06395e-05 -8.20174e-05 -7.24896e-05 -6.22026e-05 -5.14357e-05 -4.05831e-05 -3.00841e-05 -2.03335e-05 -1.16074e-05 -4.02367e-06 2.43278e-06 7.85215e-06 1.23351e-05 1.5957e-05 1.87752e-05 2.08367e-05 2.21698e-05 2.2803e-05 2.27972e-05 2.2305e-05 2.1615e-05 2.09336e-05 2.03845e-05 2.00754e-05 2.00479e-05 2.02476e-05 2.05537e-05 2.08159e-05 2.09098e-05 2.0797e-05 2.05303e-05 -0.00014355 -0.000142082 -0.000140309 -0.00013821 -0.000135762 -0.000132918 -0.000129574 -0.000125511 -0.000120418 -0.000114204 -0.000106845 -9.83922e-05 -8.90911e-05 -7.89633e-05 -6.80828e-05 -5.66868e-05 -4.5158e-05 -3.39475e-05 -2.34736e-05 -1.40265e-05 -5.68929e-06 1.59348e-06 7.92313e-06 1.33674e-05 1.79204e-05 2.15685e-05 2.43015e-05 2.60674e-05 2.68597e-05 2.68477e-05 2.63179e-05 2.55756e-05 2.48449e-05 2.42594e-05 2.38926e-05 2.37563e-05 2.37845e-05 2.38408e-05 2.3759e-05 2.34179e-05 2.28123e-05 -0.000150605 -0.00014967 -0.000148453 -0.000146939 -0.00014511 -0.000142874 -0.000139907 -0.000135782 -0.000130264 -0.000123421 -0.000115363 -0.000106226 -9.62342e-05 -8.54101e-05 -7.37916e-05 -6.15809e-05 -4.91637e-05 -3.70371e-05 -2.56762e-05 -1.54077e-05 -6.26956e-06 1.85743e-06 9.11635e-06 1.55584e-05 2.1084e-05 2.55821e-05 2.89316e-05 3.10187e-05 3.18737e-05 3.17707e-05 3.10922e-05 3.02004e-05 2.93308e-05 2.86075e-05 2.8074e-05 2.77086e-05 2.7426e-05 2.70871e-05 2.65399e-05 2.5691e-05 2.45722e-05 -0.00015811 -0.000157777 -0.000157177 -0.000156276 -0.000155024 -0.000153102 -0.00014993 -0.000145204 -0.000138941 -0.00013132 -0.000122534 -0.00011275 -0.000102086 -9.0576e-05 -7.82591e-05 -6.53061e-05 -5.20925e-05 -3.91377e-05 -2.69437e-05 -1.58386e-05 -5.88584e-06 3.03766e-06 1.11023e-05 1.83738e-05 2.47398e-05 2.99768e-05 3.38393e-05 3.6182e-05 3.71047e-05 3.69429e-05 3.61354e-05 3.50736e-05 3.40138e-05 3.30766e-05 3.2285e-05 3.15889e-05 3.08859e-05 3.00459e-05 2.8951e-05 2.75567e-05 2.59328e-05 -0.000166462 -0.000166607 -0.000166307 -0.000165198 -0.000162879 -0.000158997 -0.000153431 -0.00014627 -0.000137746 -0.00012811 -0.000117565 -0.000106208 -9.40618e-05 -8.11518e-05 -6.76201e-05 -5.38132e-05 -4.02393e-05 -2.7404e-05 -1.56369e-05 -5.01513e-06 4.57248e-06 1.32937e-05 2.12183e-05 2.8223e-05 3.40221e-05 3.83144e-05 4.09288e-05 4.19818e-05 4.18385e-05 4.09589e-05 3.97564e-05 3.85054e-05 3.73301e-05 3.62409e-05 3.5168e-05 3.3997e-05 3.26104e-05 3.09284e-05 2.896e-05 2.68295e-05 -0.000174491 -0.000175741 -0.000176665 -0.000176575 -0.000175035 -0.000171933 -0.000167137 -0.000160583 -0.000152406 -0.00014289 -0.000132336 -0.000120977 -0.00010892 -9.61842e-05 -8.27769e-05 -6.88058e-05 -5.45815e-05 -4.05848e-05 -2.73058e-05 -1.50674e-05 -3.95109e-06 6.14237e-06 1.5363e-05 2.37651e-05 3.12105e-05 3.73946e-05 4.19985e-05 4.48671e-05 4.60905e-05 4.60308e-05 4.51529e-05 4.38752e-05 4.24804e-05 4.10998e-05 3.97349e-05 3.82997e-05 3.6672e-05 3.47406e-05 3.24572e-05 2.98831e-05 2.72163e-05 -0.000183398 -0.000185566 -0.000186826 -0.000186411 -0.000184188 -0.000180194 -0.000174387 -0.000166767 -0.000157514 -0.000146956 -0.000135451 -0.000123274 -0.000110547 -9.72874e-05 -8.34844e-05 -6.92183e-05 -5.4762e-05 -4.05496e-05 -2.70288e-05 -1.44992e-05 -3.04705e-06 7.40354e-06 1.69718e-05 2.56849e-05 3.34017e-05 3.98258e-05 4.46557e-05 4.77304e-05 4.91424e-05 4.92271e-05 4.84324e-05 4.7169e-05 4.57246e-05 4.42205e-05 4.2649e-05 4.09095e-05 3.88721e-05 3.64213e-05 3.35274e-05 3.03075e-05 2.70439e-05 -0.000192763 -0.000195419 -0.000196465 -0.00019549 -0.000192528 -0.000187632 -0.000180814 -0.000172111 -0.000161765 -0.000150171 -0.000137745 -0.00012479 -0.000111443 -9.77326e-05 -8.36468e-05 -6.92442e-05 -5.47498e-05 -4.05316e-05 -2.69698e-05 -1.43264e-05 -2.68957e-06 7.98098e-06 1.77618e-05 2.6658e-05 3.45253e-05 4.10926e-05 4.60805e-05 4.93494e-05 5.09826e-05 5.12753e-05 5.06585e-05 4.95272e-05 4.8149e-05 4.66285e-05 4.49431e-05 4.29834e-05 4.06e-05 3.76657e-05 3.41593e-05 3.02467e-05 2.63047e-05 2.28252e-05 -0.00020177 -0.000204486 -0.000205212 -0.000203706 -0.000200031 -0.000194253 -0.000186459 -0.000176715 -0.000165348 -0.000152806 -0.00013954 -0.000125878 -0.000111992 -9.79269e-05 -8.36819e-05 -6.9299e-05 -5.49498e-05 -4.09174e-05 -2.74979e-05 -1.49018e-05 -3.22153e-06 7.54611e-06 1.74325e-05 2.64169e-05 3.43634e-05 4.10316e-05 4.61873e-05 4.96769e-05 5.15616e-05 5.2151e-05 5.18289e-05 5.09556e-05 4.97629e-05 4.83385e-05 4.66454e-05 4.45519e-05 4.18983e-05 3.85313e-05 3.44314e-05 2.98032e-05 2.51108e-05 2.09854e-05 -0.000209771 -0.000212577 -0.000213091 -0.00021113 -0.000206773 -0.000200145 -0.000191417 -0.000180762 -0.000168498 -0.000155147 -0.000141175 -0.000126936 -0.000112621 -9.83122e-05 -8.40321e-05 -6.9812e-05 -5.57619e-05 -4.20701e-05 -2.89405e-05 -1.65272e-05 -4.92179e-06 5.84478e-06 1.57604e-05 2.47778e-05 3.27724e-05 3.95462e-05 4.4877e-05 4.8639e-05 5.08989e-05 5.1916e-05 5.20232e-05 5.153e-05 5.0634e-05 4.94041e-05 4.77923e-05 4.56638e-05 4.28316e-05 3.91193e-05 3.44895e-05 2.91778e-05 2.37247e-05 1.88615e-05 1.5247e-05 -0.000216958 -0.000219898 -0.000220268 -0.000217897 -0.000212911 -0.000205508 -0.00019592 -0.000184481 -0.000171512 -0.000157537 -0.000143039 -0.000128374 -0.000113766 -9.93364e-05 -8.51366e-05 -7.11935e-05 -5.75569e-05 -4.43168e-05 -3.15791e-05 -1.94461e-05 -7.99624e-06 2.70902e-06 1.26155e-05 2.16518e-05 2.97015e-05 3.65982e-05 4.21683e-05 4.63175e-05 4.90946e-05 5.0689e-05 5.13602e-05 5.13598e-05 5.08499e-05 4.98926e-05 4.84461e-05 4.63712e-05 4.34778e-05 3.95426e-05 3.45039e-05 2.86273e-05 2.25216e-05 1.69594e-05 1.26731e-05 1.01974e-05 -0.000223518 -0.000226601 -0.000226873 -0.000224164 -0.000218642 -0.000210591 -0.000200337 -0.000188246 -0.000174749 -0.000160352 -0.000145522 -0.000130609 -0.000115855 -0.00010142 -8.73935e-05 -7.38052e-05 -6.06492e-05 -4.79217e-05 -3.56336e-05 -2.38242e-05 -1.25622e-05 -1.93267e-06 7.97275e-06 1.70641e-05 2.52245e-05 3.23196e-05 3.8228e-05 4.28858e-05 4.63068e-05 4.86041e-05 4.99506e-05 5.0531e-05 5.04807e-05 4.98642e-05 4.8661e-05 4.67333e-05 4.38747e-05 3.98528e-05 3.45795e-05 2.83377e-05 2.18106e-05 1.57761e-05 1.08533e-05 7.76201e-06 6.9469e-06 8.02233e-06 -0.000229531 -0.000232768 -0.000233002 -0.000230082 -0.000224187 -0.00021566 -0.000204914 -0.000192406 -0.000178603 -0.000164006 -0.000149046 -0.000134051 -0.000119275 -0.000104923 -9.1126e-05 -7.79213e-05 -6.52599e-05 -5.30515e-05 -4.12131e-05 -2.97183e-05 -1.862e-05 -8.02638e-06 1.94051e-06 1.1163e-05 1.95267e-05 2.69304e-05 3.32915e-05 3.85483e-05 4.26973e-05 4.5777e-05 4.7873e-05 4.90992e-05 4.95686e-05 4.93542e-05 4.84514e-05 4.67494e-05 4.4036e-05 4.00631e-05 3.47338e-05 2.83375e-05 2.16703e-05 1.54593e-05 1.01113e-05 6.4462e-06 5.27897e-06 -0.000235037 -0.000238473 -0.000238793 -0.000235833 -0.000229781 -0.000221024 -0.00021006 -0.00019739 -0.00018351 -0.000168921 -0.000153998 -0.000139045 -0.000124333 -0.000110108 -9.65481e-05 -8.37059e-05 -7.14995e-05 -5.97592e-05 -4.83109e-05 -3.70633e-05 -2.60516e-05 -1.54046e-05 -5.27836e-06 4.18583e-06 1.28706e-05 2.06883e-05 2.75819e-05 3.35114e-05 3.8431e-05 4.23179e-05 4.51864e-05 4.70991e-05 4.81495e-05 4.84006e-05 4.78687e-05 4.64709e-05 4.398e-05 4.01526e-05 3.49073e-05 2.85627e-05 2.19426e-05 1.57474e-05 1.02443e-05 6.13176e-06 4.61211e-06 5.61595e-06 -0.000240105 -0.000243822 -0.000244393 -0.00024163 -0.000235719 -0.00022706 -0.000216173 -0.000203613 -0.000189893 -0.00017547 -0.000160686 -0.000145836 -0.000131212 -0.000117105 -0.000103739 -9.11893e-05 -7.93454e-05 -6.79671e-05 -5.67978e-05 -4.56823e-05 -3.46365e-05 -2.38101e-05 -1.33966e-05 -3.5676e-06 5.54983e-06 1.38771e-05 2.13739e-05 2.79954e-05 3.36769e-05 3.83561e-05 4.20005e-05 4.46302e-05 4.63109e-05 4.70977e-05 4.70105e-05 4.59687e-05 4.37604e-05 4.01604e-05 3.51068e-05 2.89113e-05 2.23962e-05 1.63113e-05 1.06948e-05 6.45237e-06 4.77401e-06 5.62352e-06 -0.000244868 -0.00024898 -0.00025 -0.000247716 -0.000242288 -0.000234092 -0.000223631 -0.000211454 -0.000198067 -0.000183892 -0.000169262 -0.000154496 -0.00013992 -0.00012587 -0.000112611 -0.000100236 -8.86173e-05 -7.74548e-05 -6.64178e-05 -5.5293e-05 -4.40751e-05 -3.29342e-05 -2.21059e-05 -1.17968e-05 -2.15002e-06 6.75711e-06 1.4888e-05 2.22005e-05 2.86216e-05 3.40661e-05 3.84727e-05 4.1834e-05 4.41889e-05 4.55676e-05 4.59779e-05 4.535e-05 4.3491e-05 4.01795e-05 3.53633e-05 2.93375e-05 2.29069e-05 1.6815e-05 1.13058e-05 7.05453e-06 5.42547e-06 -0.000254144 -0.000255788 -0.000254235 -0.000249615 -0.000242242 -0.00023254 -0.000220992 -0.000208046 -0.000194127 -0.000179605 -0.000164856 -0.00015024 -0.000136138 -0.000122858 -0.000110511 -9.89558e-05 -8.78463e-05 -7.67868e-05 -6.55129e-05 -5.39994e-05 -4.24336e-05 -3.10906e-05 -2.02159e-05 -9.97314e-06 -4.44581e-07 8.33425e-06 1.6324e-05 2.34529e-05 2.96313e-05 3.4787e-05 3.88868e-05 4.1939e-05 4.39483e-05 4.49038e-05 4.47313e-05 4.32547e-05 4.02659e-05 3.57145e-05 2.98936e-05 2.34911e-05 1.72548e-05 1.17964e-05 7.84458e-06 6.37073e-06 7.15688e-06 -0.000254151 -0.00025937 -0.000261744 -0.000261097 -0.000257529 -0.000251248 -0.00024255 -0.000231799 -0.000219373 -0.000205722 -0.000191273 -0.000176458 -0.000161698 -0.000147418 -0.00013397 -0.000121492 -0.000109836 -9.86184e-05 -8.73903e-05 -7.58478e-05 -6.39493e-05 -5.18949e-05 -3.99904e-05 -2.85152e-05 -1.76553e-05 -7.50362e-06 1.90343e-06 1.05339e-05 1.83297e-05 2.52094e-05 3.10923e-05 3.59247e-05 3.96828e-05 4.23437e-05 4.38743e-05 4.4187e-05 4.31249e-05 4.05004e-05 3.62553e-05 3.06333e-05 2.42405e-05 1.78469e-05 1.23684e-05 8.81423e-06 7.55851e-06 -0.000258574 -0.00026444 -0.000267608 -0.00026795 -0.000265531 -0.000260453 -0.00025287 -0.000242999 -0.000231167 -0.000217825 -0.000203454 -0.000188552 -0.000173588 -0.000159033 -0.000145287 -0.000132529 -0.000120617 -0.000109142 -9.76152e-05 -8.57044e-05 -7.3363e-05 -6.08008e-05 -4.83456e-05 -3.63014e-05 -2.4875e-05 -1.41684e-05 -4.21129e-06 4.98655e-06 1.33887e-05 2.092e-05 2.74894e-05 3.30233e-05 3.74672e-05 4.07739e-05 4.28888e-05 4.37083e-05 4.30833e-05 4.0847e-05 3.69492e-05 3.15908e-05 2.52894e-05 1.88564e-05 1.33744e-05 9.97195e-06 8.93102e-06 9.76677e-06 -0.000262501 -0.00026903 -0.000272995 -0.000274299 -0.000272985 -0.000269063 -0.000262553 -0.000253569 -0.000242359 -0.000229392 -0.000215179 -0.000200236 -0.000185068 -0.000170195 -0.000156073 -0.00014292 -0.000130615 -0.000118743 -0.000106801 -9.44422e-05 -8.16249e-05 -6.85699e-05 -5.56227e-05 -4.31072e-05 -3.12419e-05 -2.01243e-05 -9.75778e-06 -1.16531e-07 8.78795e-06 1.68821e-05 2.40581e-05 3.02212e-05 3.52888e-05 3.91967e-05 4.1872e-05 4.32033e-05 4.30452e-05 4.12485e-05 3.77617e-05 3.27606e-05 2.66944e-05 2.03915e-05 1.49743e-05 1.15463e-05 1.04787e-05 -0.000265691 -0.000272835 -0.000277529 -0.000279701 -0.000279339 -0.000276396 -0.000270824 -0.00026261 -0.00025202 -0.00023948 -0.000225494 -0.000210586 -0.000195283 -0.000180126 -0.000165607 -0.000151982 -0.000139174 -0.000126788 -0.000114333 -0.000101475 -8.81752e-05 -7.46689e-05 -6.13234e-05 -4.84787e-05 -3.63521e-05 -2.50137e-05 -1.44219e-05 -4.50551e-06 4.74627e-06 1.3257e-05 2.09007e-05 2.75557e-05 3.313e-05 3.75462e-05 4.07201e-05 4.25411e-05 4.28788e-05 4.15852e-05 3.86032e-05 3.40696e-05 2.83994e-05 2.23849e-05 1.71014e-05 1.35718e-05 1.23497e-05 -0.000267982 -0.000275647 -0.000280954 -0.000283797 -0.000284176 -0.000281991 -0.000277143 -0.000269587 -0.00025953 -0.000247397 -0.000233682 -0.000218898 -0.000203545 -0.000188162 -0.000173262 -0.000159142 -0.000145759 -0.000132775 -0.000119747 -0.000106366 -9.26094e-05 -7.87276e-05 -6.51052e-05 -5.20917e-05 -3.98866e-05 -2.85163e-05 -1.78848e-05 -7.87878e-06 1.52912e-06 1.02566e-05 1.81653e-05 2.51248e-05 3.10299e-05 3.57931e-05 3.93273e-05 4.15598e-05 4.24113e-05 4.17222e-05 3.93632e-05 3.54325e-05 3.03055e-05 2.46953e-05 1.95838e-05 1.59346e-05 1.43819e-05 -0.000269257 -0.000277291 -0.000283024 -0.000286359 -0.000287263 -0.000285608 -0.000281266 -0.000274186 -0.000264569 -0.000252805 -0.000239361 -0.000224719 -0.000209376 -0.00019384 -0.00017861 -0.000163987 -0.00014999 -0.000136366 -0.000122746 -0.000108873 -9.47372e-05 -8.05965e-05 -6.6843e-05 -5.38186e-05 -4.1694e-05 -3.04436e-05 -1.99252e-05 -9.99642e-06 -6.2263e-07 8.11119e-06 1.60637e-05 2.31011e-05 2.91102e-05 3.39848e-05 3.76502e-05 4.01255e-05 4.1452e-05 4.14822e-05 3.99159e-05 3.67698e-05 3.23272e-05 2.72261e-05 2.23382e-05 1.85361e-05 1.64998e-05 -0.000269428 -0.000277678 -0.000283664 -0.000287276 -0.000288471 -0.000287123 -0.000283092 -0.000276348 -0.000267049 -0.000255561 -0.000242336 -0.000227852 -0.00021255 -0.000196905 -0.000181377 -0.000166272 -0.000151672 -0.000137421 -0.000123254 -0.000108968 -9.45786e-05 -8.03396e-05 -6.66237e-05 -5.374e-05 -4.18169e-05 -3.07885e-05 -2.04842e-05 -1.07527e-05 -1.56106e-06 7.00284e-06 1.47986e-05 2.16998e-05 2.75869e-05 3.23436e-05 3.59757e-05 3.86088e-05 4.02945e-05 4.09335e-05 4.02311e-05 3.8016e-05 3.44239e-05 2.99401e-05 2.534e-05 2.14012e-05 1.87955e-05 1.80374e-05 1.88335e-05 -0.000268449 -0.000276756 -0.00028279 -0.000286491 -0.000287783 -0.000286553 -0.000282673 -0.000276095 -0.00026699 -0.000255706 -0.000242663 -0.000228294 -0.00021302 -0.000197279 -0.000181488 -0.000165946 -0.00015079 -0.000135979 -0.000121362 -0.000106807 -9.23437e-05 -7.82009e-05 -6.4697e-05 -5.20882e-05 -4.04564e-05 -2.97078e-05 -1.96663e-05 -1.01913e-05 -1.26303e-06 7.023e-06 1.45298e-05 2.11376e-05 2.67512e-05 3.13415e-05 3.5029e-05 3.7883e-05 3.98544e-05 4.08229e-05 4.06715e-05 3.93175e-05 3.66315e-05 3.28408e-05 2.86067e-05 2.46209e-05 2.15349e-05 2.00411e-05 2.04454e-05 2.15302e-05 2.27954e-05 2.43894e-05 -0.000266291 -0.000274501 -0.000280439 -0.000284019 -0.000285208 -0.000283919 -0.000280029 -0.000273512 -0.000264513 -0.000253351 -0.000240417 -0.000226131 -0.000210875 -0.000195047 -0.00017902 -0.000163096 -0.00014748 -0.000132241 -0.000117337 -0.000102707 -8.8384e-05 -7.4539e-05 -6.14137e-05 -4.91926e-05 -3.79105e-05 -2.74636e-05 -1.76902e-05 -8.47651e-06 1.73105e-07 8.14877e-06 1.53094e-05 2.15525e-05 2.68421e-05 3.12954e-05 3.5056e-05 3.80813e-05 4.02923e-05 4.15668e-05 4.18209e-05 4.10338e-05 3.90767e-05 3.59446e-05 3.21212e-05 2.82142e-05 2.48555e-05 2.28151e-05 2.27967e-05 2.38087e-05 2.4968e-05 2.64812e-05 -0.000262983 -0.000270941 -0.000276603 -0.000279894 -0.000280817 -0.000279329 -0.00027532 -0.000268758 -0.000259785 -0.000248697 -0.000235847 -0.000221621 -0.000206351 -0.00019041 -0.00017417 -0.000157957 -0.000142031 -0.000126557 -0.000111584 -9.71044e-05 -8.31336e-05 -6.97711e-05 -5.71605e-05 -4.54055e-05 -3.4504e-05 -2.43568e-05 -1.48318e-05 -5.85082e-06 2.54966e-06 1.02392e-05 1.7068e-05 2.29536e-05 2.79271e-05 3.22229e-05 3.59979e-05 3.91343e-05 4.15491e-05 4.31042e-05 4.37009e-05 4.33202e-05 4.18616e-05 3.92446e-05 3.58155e-05 3.21054e-05 2.87271e-05 2.64988e-05 2.62233e-05 2.70007e-05 2.79582e-05 -0.000258596 -0.000266149 -0.000271374 -0.000274237 -0.000274765 -0.000272938 -0.000268688 -0.000262006 -0.000253036 -0.000242017 -0.000229241 -0.000215041 -0.000199734 -0.000183683 -0.000167279 -0.00015089 -0.000134844 -0.00011937 -0.000104574 -9.04674e-05 -7.70364e-05 -6.42979e-05 -5.22938e-05 -4.10497e-05 -3.05372e-05 -2.06751e-05 -1.13714e-05 -2.58747e-06 5.60897e-06 1.30637e-05 1.96184e-05 2.52041e-05 2.99047e-05 3.40285e-05 3.77772e-05 4.10096e-05 4.36071e-05 4.54046e-05 4.62765e-05 4.61701e-05 4.50101e-05 4.27217e-05 3.96208e-05 3.62048e-05 3.3064e-05 3.10241e-05 3.07039e-05 3.11157e-05 3.17743e-05 3.2811e-05 -0.000253249 -0.000260284 -0.000264962 -0.000267262 -0.000267259 -0.000264974 -0.000260396 -0.00025354 -0.000244535 -0.00023357 -0.000220879 -0.000206724 -