# vtk DataFile Version 2.0
3D Data
ASCII
DATASET UNSTRUCTURED_GRID
POINTS 7674 double 
-1.678e+06 1.7235e+06 -508.054
-1.679e+06 1.724e+06 -505.218
-1.6785e+06 1.724e+06 -506.9
-1.678e+06 1.724e+06 -507.336
-1.6775e+06 1.724e+06 -507.273
-1.677e+06 1.724e+06 -507.066
-1.6765e+06 1.724e+06 -506.891
-1.676e+06 1.724e+06 -507.022
-1.6755e+06 1.724e+06 -507.444
-1.675e+06 1.724e+06 -508.004
-1.674e+06 1.724e+06 -508.536
-1.673e+06 1.724e+06 -507.881
-1.6705e+06 1.724e+06 -501.129
-1.6695e+06 1.724e+06 -498.513
-1.681e+06 1.7245e+06 -497.608
-1.6805e+06 1.7245e+06 -495.107
-1.68e+06 1.7245e+06 -498.505
-1.6795e+06 1.7245e+06 -501.758
-1.679e+06 1.7245e+06 -503.92
-1.6785e+06 1.7245e+06 -506.024
-1.678e+06 1.7245e+06 -507.045
-1.6775e+06 1.7245e+06 -506.393
-1.677e+06 1.7245e+06 -505.921
-1.6765e+06 1.7245e+06 -505.437
-1.676e+06 1.7245e+06 -505.905
-1.6755e+06 1.7245e+06 -506.795
-1.675e+06 1.7245e+06 -507.635
-1.6745e+06 1.7245e+06 -508.27
-1.674e+06 1.7245e+06 -508.342
-1.6735e+06 1.7245e+06 -508.199
-1.673e+06 1.7245e+06 -507.827
-1.6725e+06 1.7245e+06 -507.16
-1.6715e+06 1.7245e+06 -504.267
-1.671e+06 1.7245e+06 -502.328
-1.6705e+06 1.7245e+06 -500.711
-1.67e+06 1.7245e+06 -499.253
-1.6695e+06 1.7245e+06 -497.96
-1.669e+06 1.7245e+06 -497.366
-1.6685e+06 1.7245e+06 -497.18
-1.668e+06 1.7245e+06 -497.402
-1.667e+06 1.7245e+06 -497.607
-1.6825e+06 1.725e+06 -475.19
-1.682e+06 1.725e+06 -495.693
-1.6815e+06 1.725e+06 -497.31
-1.681e+06 1.725e+06 -497.254
-1.6805e+06 1.725e+06 -497.158
-1.68e+06 1.725e+06 -498.906
-1.6795e+06 1.725e+06 -501.083
-1.679e+06 1.725e+06 -503.207
-1.6785e+06 1.725e+06 -505.184
-1.678e+06 1.725e+06 -506.457
-1.6775e+06 1.725e+06 -505.385
-1.677e+06 1.725e+06 -505.246
-1.6765e+06 1.725e+06 -504.056
-1.676e+06 1.725e+06 -504.769
-1.6755e+06 1.725e+06 -506.174
-1.675e+06 1.725e+06 -506.659
-1.6745e+06 1.725e+06 -507.198
-1.674e+06 1.725e+06 -507.432
-1.6735e+06 1.725e+06 -507.555
-1.673e+06 1.725e+06 -507.511
-1.6725e+06 1.725e+06 -507.189
-1.672e+06 1.725e+06 -506.117
-1.6715e+06 1.725e+06 -503.972
-1.671e+06 1.725e+06 -501.746
-1.6705e+06 1.725e+06 -500.183
-1.67e+06 1.725e+06 -499.007
-1.6695e+06 1.725e+06 -497.719
-1.669e+06 1.725e+06 -497.096
-1.6685e+06 1.725e+06 -497.763
-1.668e+06 1.725e+06 -498.292
-1.6675e+06 1.725e+06 -498.359
-1.667e+06 1.725e+06 -498.201
-1.6665e+06 1.725e+06 -498.439
-1.6835e+06 1.7255e+06 -486.907
-1.683e+06 1.7255e+06 -488.965
-1.6825e+06 1.7255e+06 -495.054
-1.682e+06 1.7255e+06 -497.03
-1.6815e+06 1.7255e+06 -497.708
-1.681e+06 1.7255e+06 -496.797
-1.6805e+06 1.7255e+06 -496.581
-1.68e+06 1.7255e+06 -498.037
-1.6795e+06 1.7255e+06 -500.673
-1.679e+06 1.7255e+06 -503.212
-1.6785e+06 1.7255e+06 -505.101
-1.678e+06 1.7255e+06 -505.957
-1.6775e+06 1.7255e+06 -505.451
-1.677e+06 1.7255e+06 -504.425
-1.6765e+06 1.7255e+06 -503.07
-1.676e+06 1.7255e+06 -503.179
-1.6755e+06 1.7255e+06 -504.385
-1.675e+06 1.7255e+06 -504.041
-1.6745e+06 1.7255e+06 -502.776
-1.674e+06 1.7255e+06 -504.486
-1.6735e+06 1.7255e+06 -506.034
-1.673e+06 1.7255e+06 -506.602
-1.6725e+06 1.7255e+06 -506.695
-1.672e+06 1.7255e+06 -505.796
-1.6715e+06 1.7255e+06 -503.639
-1.671e+06 1.7255e+06 -501.089
-1.6705e+06 1.7255e+06 -499.299
-1.67e+06 1.7255e+06 -498.723
-1.6695e+06 1.7255e+06 -498.024
-1.669e+06 1.7255e+06 -497.372
-1.6685e+06 1.7255e+06 -499.338
-1.668e+06 1.7255e+06 -499.521
-1.6675e+06 1.7255e+06 -499.178
-1.6835e+06 1.726e+06 -494.483
-1.683e+06 1.726e+06 -495.83
-1.6825e+06 1.726e+06 -496.67
-1.682e+06 1.726e+06 -497.726
-1.6815e+06 1.726e+06 -497.445
-1.681e+06 1.726e+06 -496.024
-1.6805e+06 1.726e+06 -495.263
-1.68e+06 1.726e+06 -496.687
-1.6795e+06 1.726e+06 -499.988
-1.679e+06 1.726e+06 -503.039
-1.6785e+06 1.726e+06 -505.084
-1.678e+06 1.726e+06 -505.744
-1.6775e+06 1.726e+06 -505.142
-1.677e+06 1.726e+06 -503.928
-1.6765e+06 1.726e+06 -502.912
-1.676e+06 1.726e+06 -502.386
-1.6755e+06 1.726e+06 -502.2
-1.675e+06 1.726e+06 -501.121
-1.6745e+06 1.726e+06 -500.602
-1.674e+06 1.726e+06 -502.055
-1.6735e+06 1.726e+06 -504.437
-1.673e+06 1.726e+06 -505.679
-1.6725e+06 1.726e+06 -506.118
-1.672e+06 1.726e+06 -505.551
-1.6715e+06 1.726e+06 -503.249
-1.671e+06 1.726e+06 -500.535
-1.6705e+06 1.726e+06 -498.596
-1.67e+06 1.726e+06 -498.295
-1.6695e+06 1.726e+06 -498.431
-1.669e+06 1.726e+06 -498.955
-1.6685e+06 1.726e+06 -499.609
-1.668e+06 1.726e+06 -499.613
-1.6675e+06 1.726e+06 -499.795
-1.6835e+06 1.7265e+06 -496.409
-1.683e+06 1.7265e+06 -496.718
-1.6825e+06 1.7265e+06 -496.905
-1.682e+06 1.7265e+06 -497.492
-1.6815e+06 1.7265e+06 -497.124
-1.681e+06 1.7265e+06 -495.591
-1.6805e+06 1.7265e+06 -494.67
-1.68e+06 1.7265e+06 -496.007
-1.6795e+06 1.7265e+06 -499.491
-1.679e+06 1.7265e+06 -502.958
-1.6785e+06 1.7265e+06 -505.133
-1.678e+06 1.7265e+06 -505.556
-1.6775e+06 1.7265e+06 -504.83
-1.677e+06 1.7265e+06 -503.665
-1.6765e+06 1.7265e+06 -502.659
-1.676e+06 1.7265e+06 -501.875
-1.6755e+06 1.7265e+06 -501.187
-1.675e+06 1.7265e+06 -500.381
-1.6745e+06 1.7265e+06 -500.427
-1.674e+06 1.7265e+06 -501.664
-1.6735e+06 1.7265e+06 -503.844
-1.673e+06 1.7265e+06 -505.452
-1.6725e+06 1.7265e+06 -506.017
-1.672e+06 1.7265e+06 -505.177
-1.6715e+06 1.7265e+06 -502.899
-1.671e+06 1.7265e+06 -500.365
-1.6705e+06 1.7265e+06 -498.626
-1.67e+06 1.7265e+06 -498.164
-1.6695e+06 1.7265e+06 -498.653
-1.669e+06 1.7265e+06 -499.583
-1.6685e+06 1.7265e+06 -500.533
-1.668e+06 1.7265e+06 -500.521
-1.6675e+06 1.7265e+06 -500.404
-1.667e+06 1.7265e+06 -500.131
-1.6835e+06 1.727e+06 -497.292
-1.683e+06 1.727e+06 -497.211
-1.6825e+06 1.727e+06 -497.392
-1.682e+06 1.727e+06 -498.325
-1.6815e+06 1.727e+06 -497.317
-1.681e+06 1.727e+06 -495.693
-1.6805e+06 1.727e+06 -494.643
-1.68e+06 1.727e+06 -495.979
-1.6795e+06 1.727e+06 -499.213
-1.679e+06 1.727e+06 -502.575
-1.6785e+06 1.727e+06 -504.797
-1.678e+06 1.727e+06 -505.422
-1.6775e+06 1.727e+06 -504.732
-1.677e+06 1.727e+06 -503.363
-1.6765e+06 1.727e+06 -502.061
-1.676e+06 1.727e+06 -501.323
-1.6755e+06 1.727e+06 -501.027
-1.675e+06 1.727e+06 -500.828
-1.6745e+06 1.727e+06 -501.241
-1.674e+06 1.727e+06 -502.338
-1.6735e+06 1.727e+06 -503.851
-1.673e+06 1.727e+06 -505.336
-1.6725e+06 1.727e+06 -505.968
-1.672e+06 1.727e+06 -505.008
-1.6715e+06 1.727e+06 -502.711
-1.671e+06 1.727e+06 -500.211
-1.6705e+06 1.727e+06 -498.604
-1.67e+06 1.727e+06 -498.16
-1.6695e+06 1.727e+06 -498.758
-1.669e+06 1.727e+06 -499.83
-1.6685e+06 1.727e+06 -500.711
-1.668e+06 1.727e+06 -500.95
-1.6675e+06 1.727e+06 -500.838
-1.683e+06 1.7275e+06 -497.335
-1.6825e+06 1.7275e+06 -497.501
-1.682e+06 1.7275e+06 -497.994
-1.6815e+06 1.7275e+06 -497.411
-1.681e+06 1.7275e+06 -496.105
-1.6805e+06 1.7275e+06 -495.266
-1.68e+06 1.7275e+06 -496.227
-1.6795e+06 1.7275e+06 -499.114
-1.679e+06 1.7275e+06 -502.516
-1.6785e+06 1.7275e+06 -505.101
-1.678e+06 1.7275e+06 -505.584
-1.6775e+06 1.7275e+06 -504.631
-1.677e+06 1.7275e+06 -503.071
-1.6765e+06 1.7275e+06 -501.659
-1.676e+06 1.7275e+06 -500.977
-1.6755e+06 1.7275e+06 -500.97
-1.675e+06 1.7275e+06 -501.178
-1.6745e+06 1.7275e+06 -501.67
-1.674e+06 1.7275e+06 -502.595
-1.6735e+06 1.7275e+06 -503.923
-1.673e+06 1.7275e+06 -505.341
-1.6725e+06 1.7275e+06 -505.859
-1.672e+06 1.7275e+06 -504.892
-1.6715e+06 1.7275e+06 -502.589
-1.671e+06 1.7275e+06 -500.199
-1.6705e+06 1.7275e+06 -498.595
-1.67e+06 1.7275e+06 -498.133
-1.6695e+06 1.7275e+06 -498.739
-1.669e+06 1.7275e+06 -499.712
-1.6685e+06 1.7275e+06 -500.694
-1.668e+06 1.7275e+06 -501.208
-1.6675e+06 1.7275e+06 -501.146
-1.667e+06 1.7275e+06 -500.812
-1.6835e+06 1.728e+06 -497.379
-1.683e+06 1.728e+06 -497.3
-1.6825e+06 1.728e+06 -497.412
-1.682e+06 1.728e+06 -498.268
-1.6815e+06 1.728e+06 -497.274
-1.681e+06 1.728e+06 -495.837
-1.6805e+06 1.728e+06 -495.553
-1.68e+06 1.728e+06 -496.545
-1.6795e+06 1.728e+06 -499.293
-1.679e+06 1.728e+06 -502.395
-1.6785e+06 1.728e+06 -504.836
-1.678e+06 1.728e+06 -505.447
-1.6775e+06 1.728e+06 -504.487
-1.677e+06 1.728e+06 -502.891
-1.6765e+06 1.728e+06 -501.509
-1.676e+06 1.728e+06 -500.83
-1.6755e+06 1.728e+06 -500.832
-1.675e+06 1.728e+06 -501.108
-1.6745e+06 1.728e+06 -501.613
-1.674e+06 1.728e+06 -502.635
-1.6735e+06 1.728e+06 -503.972
-1.673e+06 1.728e+06 -505.247
-1.6725e+06 1.728e+06 -505.772
-1.672e+06 1.728e+06 -504.747
-1.6715e+06 1.728e+06 -502.531
-1.671e+06 1.728e+06 -500.166
-1.6705e+06 1.728e+06 -498.621
-1.67e+06 1.728e+06 -498.153
-1.6695e+06 1.728e+06 -498.75
-1.669e+06 1.728e+06 -499.787
-1.6685e+06 1.728e+06 -500.804
-1.668e+06 1.728e+06 -501.268
-1.6675e+06 1.728e+06 -501.274
-1.6835e+06 1.7285e+06 -497.188
-1.683e+06 1.7285e+06 -497.05
-1.6825e+06 1.7285e+06 -496.317
-1.682e+06 1.7285e+06 -496.692
-1.6815e+06 1.7285e+06 -495.543
-1.681e+06 1.7285e+06 -494.087
-1.6805e+06 1.7285e+06 -494.627
-1.68e+06 1.7285e+06 -496.376
-1.6795e+06 1.7285e+06 -498.881
-1.679e+06 1.7285e+06 -501.997
-1.6785e+06 1.7285e+06 -504.504
-1.678e+06 1.7285e+06 -505.368
-1.6775e+06 1.7285e+06 -504.445
-1.677e+06 1.7285e+06 -502.777
-1.6765e+06 1.7285e+06 -501.397
-1.676e+06 1.7285e+06 -500.694
-1.6755e+06 1.7285e+06 -500.666
-1.675e+06 1.7285e+06 -501.009
-1.6745e+06 1.7285e+06 -501.657
-1.674e+06 1.7285e+06 -502.697
-1.6735e+06 1.7285e+06 -503.957
-1.673e+06 1.7285e+06 -505.07
-1.6725e+06 1.7285e+06 -505.502
-1.672e+06 1.7285e+06 -504.642
-1.6715e+06 1.7285e+06 -502.419
-1.671e+06 1.7285e+06 -500.221
-1.6705e+06 1.7285e+06 -498.792
-1.67e+06 1.7285e+06 -498.377
-1.6695e+06 1.7285e+06 -498.892
-1.669e+06 1.7285e+06 -499.796
-1.6685e+06 1.7285e+06 -500.732
-1.668e+06 1.7285e+06 -501.338
-1.6675e+06 1.7285e+06 -501.395
-1.6835e+06 1.729e+06 -496.844
-1.683e+06 1.729e+06 -496.675
-1.6825e+06 1.729e+06 -495.246
-1.682e+06 1.729e+06 -493.252
-1.6815e+06 1.729e+06 -492.469
-1.681e+06 1.729e+06 -491.287
-1.6805e+06 1.729e+06 -490.739
-1.68e+06 1.729e+06 -494.508
-1.6795e+06 1.729e+06 -497.66
-1.679e+06 1.729e+06 -501.473
-1.6785e+06 1.729e+06 -504.372
-1.678e+06 1.729e+06 -505.271
-1.6775e+06 1.729e+06 -504.393
-1.677e+06 1.729e+06 -502.842
-1.6765e+06 1.729e+06 -501.463
[...]
POINT_DATA 7674
SCALARS T double
LOOKUP_TABLE default
88.3361 60.3579 69.3465 79.0233 72.6231 46.0396 10.9649 -17.4554 -33.639 -35.6347 -1.26938 49.7613 4.3378 -9.94924 -19.8395 3.47186 28.1335 42.8065 48.5286 55.726 68.3849 67.3819 41.5322 1.02272 -31.0897 -49.1941 -47.1979 -25.0611 2.1437 31.2421 62.8866 90.5989 80.9915 38.2934 -13.4674 -6.7462 -13.2264 -22.7577 -32.3399 -32.9669 -31.9167 10.0442 -5.22169 -17.241 -11.9605 6.45368 28.7926 44.7823 48.236 49.2934 57.4596 54.3486 25.6399 -10.9611 -35.4738 -55.0141 -67.0091 -52.3426 7.64239 68.1575 109.079 146.52 154.229 117.976 61.355 -18.2174 -27.8483 -13.9279 -27.8616 -37.374 -40.8771 -41.3142 -37.6402 -38.8388 20.8102 23.6911 22.9206 12.3827 0.776338 -1.34912 9.98259 34.3075 54.4893 63.1459 58.5328 49.607 30.553 9.97886 -12.0233 -12.6442 -39.4729 -81.6661 -96.1847 15.0036 128.498 219.299 238.343 204.281 131.653 67.0079 1.69459 -53.8382 -29.9347 -40.1992 -44.5585 -53.066 -54.4878 15.2321 21.6509 26.8561 22.1805 13.6433 9.47125 19.8067 40.3692 58.189 70.6397 68.1695 45.4927 23.3853 17.2144 30.4813 57.985 51.7441 8.89923 3.307 69.716 158.29 259.384 273.152 168.906 78.9104 16.1571 -35.8518 -70.6204 -77.1725 -78.6451 -79.8538 -79.5463 -73.2565 4.70702 11.7969 18.3716 21.8969 23.3791 25.2285 31.0511 42.2099 53.3975 60.8671 59.449 43.7676 32.4292 43.6344 86.423 152.127 197.734 190.761 151.279 134.425 134.727 158.102 144.784 62.1783 -9.88449 -58.153 -96.0449 -113.254 -118.531 -120.123 -117.582 -105.822 -91.2758 -71.4626 -7.00195 -2.44191 7.95419 19.7186 30.584 36.4276 39.5073 41.6582 44.1154 44.5703 43.058 45.6634 50.76 76.7136 141.05 256.723 343.836 373.73 307.351 213.985 116.306 41.5518 -17.8608 -53.2972 -95.3042 -118.599 -139.366 -148.041 -151.966 -152 -142.561 -126.943 -104.225 -16.4561 -3.10269 15.1001 34.4664 44.7405 47.0288 42.7645 36.7022 34.0978 35.8823 50.9024 70.058 106.647 182.657 305.176 414.75 480.852 422.536 255.395 90.0827 -32.4275 -108.163 -134.031 -156.154 -163.223 -167.287 -173.657 -175.437 -171.029 -157.932 -139.519 -109.083 -80.9215 -20.4218 -22.6496 -8.85688 16.691 41.7986 57.0137 58.2033 47.5387 35.1467 30.2034 35.6615 54.6871 81.9252 122.402 189.43 299.048 413.999 494.049 448.856 260.057 79.2827 -55.7949 -139.49 -179.732 -199.002 -200.481 -187.771 -195.172 -190.166 -182.678 -166.588 -144.089 -111.692 -15.0947 -17.308 -5.33721 24.8792 51.081 67.3535 69.1993 55.0661 37.9041 29.6809 36.5833 57.5347 86.4266 117.91 167.77 249.993 340.393 400.108 369.515 227.48 57.0132 -69.2624 -149.276 -190.852 -213.887 -222.801 -205.494 -199.583 -190.375 -185.126 -173.629 -150.511 -110.94 -3.18467 -0.200097 12.8799 36.5897 60.7474 74.5309 76.8556 62.5092 43.2748 31.451 40.0437 63.6629 92.8989 117.695 149.628 193.976 243.541 276.183 271.295 174.175 42.9986 -56.7888 -121.029 -152.681 -168.176 -195.532 -190.345 -162.779 -158.561 -170.381 -180.322 -143.095 -91.7563 -35.4515 10.1993 18.8115 32.1565 49.138 68.133 78.6628 80.4885 69.9641 54.6178 43.8252 51.6868 78.2074 110.264 132.87 147.858 166.104 174.432 172.555 145.154 132.94 80.2982 7.18122 -51.9443 -63.4719 -47.5808 -63.0038 -85.6727 -59.7383 -66.3283 -94.0421 -127.284 -94.5225 -41.7116 21.5664 33.6761 47.9844 59.873 71.9506 80.1548 83.2289 79.8703 72.2869 65.2956 73.0368 103.845 135.914 162.07 178.142 187.103 175.468 163.912 148.529 186.504 199.481 147.625 91.9938 93.0225 119.626 137.502 119.262 88.7976 68.6612 43.6105 27.1061 5.62329 32.8477 57.6549 25.4455 39.2131 54.5766 64.3617 73.6488 81.2919 87.0096 88.6781 88.8199 91.5752 101.503 126.336 158.147 191.163 220.048 234.294 244.54 248.046 264.068 306.528 343.391 345.878 311.096 281.049 276.075 294.413 296.249 204.93 175.812 159.242 164.996 122.068 88.9342 21.2265 35.1547 50.6919 63.3575 74.662 83.5112 90.5186 96.347 101.46 104.989 111.947 130.889 163.687 200.473 240.524 266.743 303.974 342.822 381.463 421.902 459.479 511.452 493.495 407.523 366.159 341.79 315.024 241.875 196.264 175.438 161.506 133.908 110.672 123.735 19.9644 27.3304 40.8062 60.592 79.8154 92.2442 99.6343 108.587 113.355 111.988 112.83 128.874 155.634 183.849 220.271 261.902 310.19 372.226 415.364 452.197 486.094 530.689 519.433 440.946 373.185 325.716 282.386 210.657 151.645 116.864 98.8393 96.4042 110.154 130.7 20.2284 22.8834 35.4482 62.9057 89.7932 107.068 117.061 123.71 127.086 127.681 126.148 126.499 137.903 153.504 180.446 223.326 265.589 316.141 346.423 383.156 424.074 460.326 454.281 389.513 318.385 270.975 234.161 163.122 95.5231 53.97 45.8832 63.0224 101.965 26.2799 30.5039 44.9735 71.1293 100.283 124.403 135.629 136.522 138.412 138.761 137.72 126.689 127.151 134.963 151.671 180.303 204.155 212.232 220.823 261.726 312.278 351.262 345.877 293.011 230.652 180.527 132.051 87.318 44.2181 14.1777 19.9698 53.8646 97.1355 139.319 36.3725 45.2725 59.1108 83.2946 108.091 129.322 139.443 139.244 139.406 134.376 125.445 115.082 117.655 129.954 142.727 158.828 162.422 144.491 134.293 163.196 199.552 223.575 224.97 186.33 139.346 93.2281 52.0377 27.5527 6.34693 -4.72897 11.8024 46.8026 91.0929 35.1624 42.7204 57.5836 71.8964 91.2973 109.863 124.88 132.909 135.876 134.712 122.518 104.91 87.3928 96.2101 123.377 139.777 146.297 142.342 140.674 131.091 111.092 107.504 102.09 103.319 85.7412 62.9473 38.4769 16.8498 -6.81954 -18.5034 -17.1717 2.99059 41.7932 86.7092 131.172 319.062 39.4128 54.7759 71.0982 86.5553 106.135 122.048 133.046 132.072 126.21 109.565 82.237 54.454 44.9183 71.9847 99.5823 104.267 119.88 136.267 140.658 98.3279 58.2503 29.0123 10.1971 16.1499 16.3043 8.36492 -5.20407 -30.8741 -35.3975 -26.8299 -0.498434 37.8648 81.8277 326.455 27.7629 35.9542 54.445 76.3464 100.42 118.456 128.308 126.06 116.069 99.4209 66.7392 17.4999 -22.4279 -26.0035 8.20426 39.4384 77.8271 106.775 110.952 93.122 57.571 26.2083 -2.51809 8.35825 -0.0826436 -19.632 -31.0216 -45.0587 -43.1626 -28.8134 -2.10261 34.7609 80.2894 125.094 335.223 331.226 23.1502 24.3503 40.1352 71.2146 99.5787 119.691 124.225 117.815 104.563 90.2531 59.9619 5.62403 -47.9723 -87.1954 -73.8973 -7.56807 42.6189 81.2306 97.3839 88.3839 81.901 76.4344 62.8516 43.7872 12.8993 -10.4226 -24.1381 -33.1826 -36.4593 -27.9982 -2.33945 35.804 78.537 351.956 343.016 344.642 30.6998 30.238 44.5362 83.1474 112.889 129.268 127.233 112.37 92.5127 75.32 53.3268 13.8968 -28.7281 -63.0467 -66.7674 -13.116 24.4595 48.6312 65.0128 69.6989 81.3515 106.754 104.225 59.7399 27.6311 12.5518 8.86324 -10.4735 -21.456 -16.0547 3.79135 40.8757 84.404 373.563 375.634 363.255 354.346 53.7685 57.1122 75.7742 112.612 140.642 150.59 140.342 112.25 82.1019 57.4229 46.6561 34.3555 21.9565 15.2825 20.2986 15.7531 10.1779 7.33071 7.43614 27.6057 51.7601 76.6419 80.6476 53.0835 31.6856 16.0234 10.5746 4.46581 -3.10299 3.44371 19.467 54.9187 93.7943 390.37 402.264 383.994 358.931 346.131 89.9898 98.6857 120.173 160.046 188.985 188.915 167.475 127.341 87.3104 55.055 44.7063 56.7081 75.5172 87.4288 82.599 48.0543 8.22101 -19.3781 -26.6958 -5.38654 29.1627 43.6182 50.627 50.0323 34.6647 18.4178 5.90416 14.943 20.9044 31.8994 49.2737 75.1241 106.002 379.129 400.47 394.619 354.766 317.58 149.076 176.813 218.562 249.097 247.214 219.391 168.989 111.821 65.9029 51.1877 75.2002 109.096 131.52 134.359 85.0437 25.9056 -9.98931 -16.7832 2.935 35.0627 52.6558 59.7542 61.0051 51.7238 39.3801 31.3556 36.3692 47.0057 60.6793 71.7405 89.626 115.145 147.171 336.186 361.673 366.846 323.422 283.48 263.104 174.267 199.127 236.18 280.327 320.383 334.949 300.226 234.143 159.053 99.7878 75.3075 89.2719 115.208 130.573 127.243 94.1914 44.807 17.2877 15.8627 36.1327 64.2731 82.4275 88.0057 88.7559 84.7293 75.5754 63.8918 65.6539 73.9444 83.3292 86.3812 99.3952 122.547 151.343 267.82 281.362 283.551 266.966 248.911 232.185 196.587 230.567 274.096 324.701 369.621 399.446 374.535 300.706 218.088 152.554 112.587 109.574 108.913 103.053 90.0118 75.3575 70.2603 63.6317 69.5874 86.7548 109.5 122.344 126.145 120.272 118.604 121.53 114.048 107.812 99.3607 96.5876 98.365 100.281 127.756 199.608 194.803 200.038 210.964 216.078 210.525 196.481 227.581 266.209 318.703 372.269 419.108 419.783 339.764 268.358 214.135 176.897 149.845 122.266 95.3478 86.4347 91.9499 109.006 120.834 132.901 145.363 163.147 169.717 161.757 148.773 144.469 156.991 181.676 158.805 122.525 93.7184 95.1342 98.7943 134.595 170.411 172.189 147.296 132.131 140.468 163.809 186.167 180.483 196.002 224.756 276.314 330.616 374.877 385.82 329.215 280.896 254.402 232.64 191.783 148.936 117.966 116.032 135.529 158.908 175.337 189.306 203.728 222.2 232.673 219.042 180.181 134.914 146.21 211.626 195.506 153.561 106.96 95.0492 121.235 160.302 123.543 102.454 107.505 137.051 170.735 162.973 166.405 186.16 225.01 265.537 290.717 291.465 280.452 257.942 253.731 247.906 212.272 180.476 160.476 167.518 192.968 219.268 235.658 243.076 255.579 279.271 299.78 287.472 225.242 144.025 99.8759 129.972 188.777 208.218 209.028 186.783 198.26 222.785 238.754 122.553 95.5549 95.4485 131.099 168.193 199.601 155.028 153.195 161.695 184.515 207.388 222.315 221.188 225.419 219.159 218.723 219.925 213.434 212.956 212.309 226.105 259.249 287.396 302.18 305.168 306.953 316.243 328.285 317.773 270.428 207.172 110.326 92.6473 251.914 312.511 341.754 348.25 301.79 275.029 272.217 283.885 293.983 294.766 275.705 233.743 185.244 144.289 120.17 117.191 144.861 182.046 212.335 155.997 152.311 153.35 165.46 175.935 185.263 190.147 193.719 196.112 193.541 203.747 225.999 246.502 268.555 293.021 322.899 351.408 368.088 371.7 358.682 343.67 321.951 314.431 313.044 339.675 336.473 334.097 401.348 446.375 442.934 417.859 355.969 305.373 289.055 297.838 311.663 318.491 313.557 279.267 224.71 179.184 155.498 156.37 172.528 205.377 231.883 248.093 252.982 255.27 162.911 158.954 159.696 160.346 164.627 171.86 182.221 188.506 195.807 198.596 215.712 243.084 274.372 307.338 341.381 367.048 397.059 423.16 435.427 420.201 401.052 363.178 371.36 419.527 490.004 549.115 587.856 543.687 541.123 512.093 462.516 386.945 317.55 283.658 284.306 307.514 323.451 335.937 322.371 258.059 212.308 189.527 192.391 204.602 227.946 252.762 267.092 268.816 263.422 266.612 169.003 161.526 164.16 163.141 166.982 174.346 187.887 200.318 213.249 224.224 239.769 265.575 297.564 328.423 358.296 388.594 419.546 446.209 467.012 478.884 493.502 503.777 517.62 561.62 604.475 631.261 650.441 618.683 594.427 553.101 487.118 398.793 310.716 256.271 248.058 278.496 309.317 327.106 320.233 281.548 240.215 217.04 209.37 224.707 246.423 270.675 282.299 280.606 272.581 270.699 178.542 167.103 165.71 174.129 182.112 189.734 204.056 223.884 242.675 255.025 268.289 292.529 319.36 347.644 376.749 405.979 426.501 445.087 472.656 519.075 581.693 644.638 671.176 672.332 665.874 651.195 642.808 649.613 628.354 583.572 500.051 404.857 313.812 243.757 230.513 260.066 298.997 317.763 312.851 303.261 274.034 249.526 237.418 247.515 264.524 281.538 288.265 286.629 279.077 272.888 200.808 185.26 180.572 199.611 212.852 219.641 233.112 254.386 275.641 294.196 308.883 323.557 343.224 366.898 399.675 430.722 440.737 442.635 469.589 533.38 623.295 703.693 740.98 716.077 689.693 666.065 656.628 679.405 675.89 630.83 550.815 446.898 346.88 264.843 237.721 272.503 313.181 335.587 335.354 336.272 323.366 302.307 285.943 280.362 283.047 285.879 287.883 286.071 281.501 276.532 236.27 225.398 225.298 241.683 258.578 264.56 270.97 287.641 306.594 327.262 345.327 351.649 361.154 380.324 416.331 455.666 478.458 477.207 495.392 558.876 629.746 693.394 723.55 705.947 690.636 685.869 696.957 719.307 733.47 711.317 641.881 522.247 402.885 316.553 287.643 316.165 353.125 378.199 388.16 386.102 379.353 364.874 343.212 324.032 304 292.558 287.491 286.986 284.883 276.213 282.547 289.921 303.543 313.113 315.479 310.382 316.502 327.088 340.349 357.812 367.015 374.826 387.358 416.762 481.239 532.506 557.301 562.413 587.842 618.763 645.889 662.338 666.061 672.643 690.305 718.161 751.267 778.758 780.507 713.966 595.292 469.646 380.816 349.661 368.914 404.654 430.737 439.469 430.946 420.396 411.673 385.272 352.213 319.339 301.044 293.669 291.23 288.334 284.986 307.621 336.531 350.118 358.026 355.789 355.257 347.79 334.182 331.107 331.653 347.519 368.097 388.036 400.526 429.338 496.297 563.635 608.781 618.633 598.172 592.763 592.034 599.87 614.433 635.454 667.467 706.65 751.377 786.489 797.453 749.449 640.866 521.371 433.852 400.275 423.65 457.46 475.521 472.168 455.555 431.9 419.617 396.749 356.204 321.043 302.353 299.197 294.029 289.969 304.243 347.961 366.387 367.714 365.051 365.421 362.98 328.879 312.295 308.568 323.426 355.04 394.445 431.058 469.3 519.368 571.545 606.222 617.229 583.955 560.578 548.273 548.449 565.425 591.486 626.523 673.296 726.597 774.018 789.09 750.497 663.389 568.464 496.255 463.723 477.165 503.293 514.849 494.018 457.908 416.075 393.245 371.2 338.022 307.551 289.858 285.868 290.76 290.426 267.844 302.555 327.994 328.22 332.81 335.423 331.592 302.129 279.895 277.39 296.401 336.289 386.331 445.305 490.494 517.803 548.151 567.018 570.667 557.471 534.486 519.212 515.745 532.862 556.157 584.618 637.213 696.915 747.532 765.625 739.05 680.254 613.404 556.762 518.021 523.787 540.755 546.169 509.499 451.326 389.594 345.417 321.98 311.129 290.597 276.562 269.381 287.368 298.518 209.674 228.696 246.625 258.765 269.262 276.063 271.508 252.803 233.204 236.727 261.584 304.73 353.384 407.027 455.919 488.475 511.661 526.575 528.996 532.653 519.108 507.878 509.027 523.273 547.341 573.042 621.338 684.672 732.36 751.224 735.183 690.039 647.179 609.445 576.97 559.882 551.943 550.354 513.061 432.745 360.878 309.238 283.633 296.907 295.402 292.599 294.169 306.186 318.975 150.279 155.633 166.239 186.939 199.408 208.26 204.77 193.895 185.833 191.567 216.923 257.977 306.612 353.047 399.903 448.294 478.885 501.56 507.969 515.455 517.022 513.626 519.035 534.384 560.679 591.389 634.578 690.047 728.125 739.231 720.95 689.369 659.062 632.153 598.854 560.461 535.907 523.163 487.557 413.753 349.987 312.347 297.087 312.628 328.44 335.976 344.476 347.394 348.491 344.245 97.1427 98.6492 105.081 126.824 140.79 148.505 148.76 143.959 143.954 146.473 170.876 215.584 263.452 308.768 354.733 413.8 462.797 496.906 514.694 520.931 525.314 526.563 536.452 556.185 584.568 620.714 663.473 703.762 733.561 741.687 725.622 688.244 650.389 620.389 584.437 544.182 512.733 482.321 447.15 403.597 356.488 333.642 329.964 350.633 371.063 384.289 391.823 390.748 380.309 62.3065 62.9191 69.6007 87.8526 103.368 110.552 114.594 113.653 116.641 123.209 146.885 187.605 233.192 281.753 334.545 397.319 458.925 502.605 526.595 532.855 535.542 541.845 555.247 577.14 607.445 643.228 682.711 719.682 744.632 750.225 730.321 688.382 640.256 596.524 558.646 524.568 495.523 469.437 438.445 411.491 381.487 367.949 372.082 392.901 416.144 429.278 432.341 426.423 411.73 394.314 42.6779 42.1334 51.8918 68.4175 83.6076 91.8452 98.4882 100.731 104.235 113.277 133.561 171.794 214.278 262.667 320.428 386.135 450.503 501.218 529.745 539.694 543.606 552.128 569.45 594.987 625.497 660.922 698.46 733.295 756.984 760.796 738.711 692.123 636.194 581.313 543.948 519.502 497.66 478.85 457.664 437.75 416.974 407.14 414.955 438.621 463.863 477.711 475.449 463.369 443.078 30.6188 36.4588 46.967 63.023 77.1364 86.4462 92.8438 97.0467 102.339 113.324 132.741 166.594 205.043 248.81 303.534 372.862 441.412 496.93 529.499 541.008 548.542 561.073 582.782 612.819 643.765 675.981 711.92 749.385 776.293 779.062 755.054 704.554 647.16 593.307 553.417 530.016 513.648 500.679 486.725 471.733 455.129 448.202 459.152 483.775 507.485 520.797 514.893 494.236 470.149 24.734 39.0303 49.4574 67.7647 79.1414 87.1805 93.6142 100.469 107.778 119.605 138.865 166.634 201.495 239.925 291.458 363.208 432.206 486.945 520.907 539.038 552.905 570.615 597.79 636.814 668.914 695.138 729.173 770.224 800.214 803.338 778.118 729.418 670.22 615.174 573.211 552.626 539.296 528.209 516.251 505.874 497.533 493.754 505.423 531.764 549.837 554.946 544.749 520.916 496.412 468.104 16.3119 42.4199 59.8834 74.3652 82.8144 90.8865 98.8367 106.898 115.691 125.783 142.694 170.134 203.315 241.901 293.524 358.987 424.131 477.067 514.697 537.51 557.029 581.475 618.617 666.729 706.894 736.357 766.499 807.094 836.273 839.261 811.2 760.453 700.419 646.716 606.387 582.094 567.682 558.269 550.531 542.462 539.018 539.916 552.576 577.436 590.8 587.557 570.361 547.882 519.792 -11.401 31.0361 59.2092 67.2612 76.7817 88.8822 101.705 111.611 123.377 135.514 151.693 175.022 205.332 243.078 292.677 355.253 418.187 468.565 506.488 534.396 559.552 590.247 634.696 698.311 760.778 803.598 827.646 864.072 876.417 871.938 841.064 790.909 734.402 682.159 639.751 609.741 592.092 584.615 579.325 573.194 570.87 580.259 594.878 615.497 630.69 628.217 607.72 576.939 541.21 504.28 -91.2739 -64.6529 -18.9574 16.312 29.0032 45.8252 67.6184 90.0472 106.385 125.181 144.934 161.276 178.722 201.435 236.213 285.977 348.512 411.606 462.672 500.315 533.586 562.12 593.566 641.66 721.212 803.642 869.586 899.651 913.868 906.157 892.261 865.048 818.643 766.231 717.181 675.391 636.382 607.848 594.495 586.432 582.497 584.709 598.209 617.952 639.657 659.513 660.659 643.96 600.65 554.793 -131.634 -105.722 -71.5602 -37.3182 -6.34899 28.5046 60.5356 87.1744 117.652 145.732 163.846 176.93 191.41 221.383 270.47 337.782 407.987 465.265 503.702 533.16 561.076 594.82 648.028 725.3 811.868 895.07 931.62 924.026 913.046 897.587 874.478 838.939 794.631 749.668 703.927 659.015 615.137 585.838 573.077 568.558 579.566 598.506 620.237 638.938 659.109 662.806 650.738 604.625 551.948 509.771 -203.295 -190.488 -161.857 -111.482 -66.6979 -21.1877 18.4457 57.4146 96.1955 131.776 153.891 161.455 172.577 199.221 250.157 322.835 399.399 462.915 506.623 531.369 552.361 582.46 631.696 701.981 782.823 856.655 896.503 901.551 897.753 889.788 877.521 858.864 828.15 786.034 738.303 689.079 635.352 582.76 555.069 549.962 562.614 582.148 602.032 614.004 625.794 630.142 617.044 579.72 536.725 -258.764 -251.409 -226.077 -176.85 -121.914 -67.1539 -18.4326 25.9866 68.2463 106.348 130.865 142.152 155.798 180.581 228.75 304.155 387.452 458.032 506.177 528.185 540.068 559.68 602.377 663.31 731.38 792.698 837.628 861.357 872.475 877.451 879.351 878.15 866.879 839.25 803.984 752.759 689.534 611.899 552.702 541.899 543.853 555.223 566.53 571.291 574.41 573.54 562.953 541.381 512.901 -296.958 -297.471 -278.784 -228.207 -168.179 -108.422 -54.5616 -6.59512 38.751 76.9812 108.027 127.969 143.691 166.108 208.713 289.438 373.827 446.593 498.989 530.328 546.155 550.966 581.737 633.378 683.245 728.044 774.17 816.554 846.671 865.954 878.567 895.265 908.362 911.402 894.786 849.012 776.318 687.959 606.299 566.322 541.428 523.917 520.169 522.031 525.065 521.553 514.716 503.189 487.224 465.658 -317.045 -320.504 -307.157 -262.263 -205.671 -147.879 -89.8739 -38.0455 15.1251 60.4867 98.1953 124.699 144.099 168.353 210.336 281.441 362.79 438.08 503.036 552.107 584.129 584.723 607.024 643.046 667.586 686.775 718.035 779.46 832.6 868.229 885.646 910.662 931.295 956.8 953.686 921.409 865.497 794.468 708.097 613.146 541.789 487.709 471.766 477.739 487.024 486.106 484.27 477.56 466.097 -310.436 -315.152 -304.149 -276.185 -234.197 -184.252 -123.847 -64.4095 -3.05552 50.8219 95.9825 133.103 158.43 183.315 217.019 279.821 356.74 432.492 508.121 581.507 645.858 674.135 685.152 695.707 685.468 673.089 682.951 757.787 827.145 875.826 899.351 914.491 921.837 939.5 952.949 952.029 933.951 887.661 804.296 667.412 553.305 472.498 439.126 445.142 464.961 474.281 473.685 466.693 451.536 430.981 -282.781 -291.376 -282.5 -268.946 -246.839 -211.479 -154.468 -84.1159 -11.2699 52.9301 106.347 154.08 187.095 212.193 240.58 290.106 352.501 423.153 506.249 611.37 728.935 807.168 800.885 776.073 730.666 687.659 689.14 740.367 813.929 875.05 903.871 900.016 888.396 884.811 904.89 934.351 948.993 922.438 843.265 702.872 562.415 463.758 419.021 432.884 454.029 468.473 468.942 457.368 439.794 -244.69 -252.038 -254.98 -252.751 -246.059 -224.129 -171.937 -87.135 -5.86065 64.5563 124.708 179.614 223.317 253.317 276.6