# vtk DataFile Version 2.0
3D Data
ASCII
DATASET UNSTRUCTURED_GRID
POINTS 7674 double 
-1.678e+06 1.7235e+06 -508.054
-1.679e+06 1.724e+06 -505.218
-1.6785e+06 1.724e+06 -506.9
-1.678e+06 1.724e+06 -507.336
-1.6775e+06 1.724e+06 -507.273
-1.677e+06 1.724e+06 -507.066
-1.6765e+06 1.724e+06 -506.891
-1.676e+06 1.724e+06 -507.022
-1.6755e+06 1.724e+06 -507.444
-1.675e+06 1.724e+06 -508.004
-1.674e+06 1.724e+06 -508.536
-1.673e+06 1.724e+06 -507.881
-1.6705e+06 1.724e+06 -501.129
-1.6695e+06 1.724e+06 -498.513
-1.681e+06 1.7245e+06 -497.608
-1.6805e+06 1.7245e+06 -495.107
-1.68e+06 1.7245e+06 -498.505
-1.6795e+06 1.7245e+06 -501.758
-1.679e+06 1.7245e+06 -503.92
-1.6785e+06 1.7245e+06 -506.024
-1.678e+06 1.7245e+06 -507.045
-1.6775e+06 1.7245e+06 -506.393
-1.677e+06 1.7245e+06 -505.921
-1.6765e+06 1.7245e+06 -505.437
-1.676e+06 1.7245e+06 -505.905
-1.6755e+06 1.7245e+06 -506.795
-1.675e+06 1.7245e+06 -507.635
-1.6745e+06 1.7245e+06 -508.27
-1.674e+06 1.7245e+06 -508.342
-1.6735e+06 1.7245e+06 -508.199
-1.673e+06 1.7245e+06 -507.827
-1.6725e+06 1.7245e+06 -507.16
-1.6715e+06 1.7245e+06 -504.267
-1.671e+06 1.7245e+06 -502.328
-1.6705e+06 1.7245e+06 -500.711
-1.67e+06 1.7245e+06 -499.253
-1.6695e+06 1.7245e+06 -497.96
-1.669e+06 1.7245e+06 -497.366
-1.6685e+06 1.7245e+06 -497.18
-1.668e+06 1.7245e+06 -497.402
-1.667e+06 1.7245e+06 -497.607
-1.6825e+06 1.725e+06 -475.19
-1.682e+06 1.725e+06 -495.693
-1.6815e+06 1.725e+06 -497.31
-1.681e+06 1.725e+06 -497.254
-1.6805e+06 1.725e+06 -497.158
-1.68e+06 1.725e+06 -498.906
-1.6795e+06 1.725e+06 -501.083
-1.679e+06 1.725e+06 -503.207
-1.6785e+06 1.725e+06 -505.184
-1.678e+06 1.725e+06 -506.457
-1.6775e+06 1.725e+06 -505.385
-1.677e+06 1.725e+06 -505.246
-1.6765e+06 1.725e+06 -504.056
-1.676e+06 1.725e+06 -504.769
-1.6755e+06 1.725e+06 -506.174
-1.675e+06 1.725e+06 -506.659
-1.6745e+06 1.725e+06 -507.198
-1.674e+06 1.725e+06 -507.432
-1.6735e+06 1.725e+06 -507.555
-1.673e+06 1.725e+06 -507.511
-1.6725e+06 1.725e+06 -507.189
-1.672e+06 1.725e+06 -506.117
-1.6715e+06 1.725e+06 -503.972
-1.671e+06 1.725e+06 -501.746
-1.6705e+06 1.725e+06 -500.183
-1.67e+06 1.725e+06 -499.007
-1.6695e+06 1.725e+06 -497.719
-1.669e+06 1.725e+06 -497.096
-1.6685e+06 1.725e+06 -497.763
-1.668e+06 1.725e+06 -498.292
-1.6675e+06 1.725e+06 -498.359
-1.667e+06 1.725e+06 -498.201
-1.6665e+06 1.725e+06 -498.439
-1.6835e+06 1.7255e+06 -486.907
-1.683e+06 1.7255e+06 -488.965
-1.6825e+06 1.7255e+06 -495.054
-1.682e+06 1.7255e+06 -497.03
-1.6815e+06 1.7255e+06 -497.708
-1.681e+06 1.7255e+06 -496.797
-1.6805e+06 1.7255e+06 -496.581
-1.68e+06 1.7255e+06 -498.037
-1.6795e+06 1.7255e+06 -500.673
-1.679e+06 1.7255e+06 -503.212
-1.6785e+06 1.7255e+06 -505.101
-1.678e+06 1.7255e+06 -505.957
-1.6775e+06 1.7255e+06 -505.451
-1.677e+06 1.7255e+06 -504.425
-1.6765e+06 1.7255e+06 -503.07
-1.676e+06 1.7255e+06 -503.179
-1.6755e+06 1.7255e+06 -504.385
-1.675e+06 1.7255e+06 -504.041
-1.6745e+06 1.7255e+06 -502.776
-1.674e+06 1.7255e+06 -504.486
-1.6735e+06 1.7255e+06 -506.034
-1.673e+06 1.7255e+06 -506.602
-1.6725e+06 1.7255e+06 -506.695
-1.672e+06 1.7255e+06 -505.796
-1.6715e+06 1.7255e+06 -503.639
-1.671e+06 1.7255e+06 -501.089
-1.6705e+06 1.7255e+06 -499.299
-1.67e+06 1.7255e+06 -498.723
-1.6695e+06 1.7255e+06 -498.024
-1.669e+06 1.7255e+06 -497.372
-1.6685e+06 1.7255e+06 -499.338
-1.668e+06 1.7255e+06 -499.521
-1.6675e+06 1.7255e+06 -499.178
-1.6835e+06 1.726e+06 -494.483
-1.683e+06 1.726e+06 -495.83
-1.6825e+06 1.726e+06 -496.67
-1.682e+06 1.726e+06 -497.726
-1.6815e+06 1.726e+06 -497.445
-1.681e+06 1.726e+06 -496.024
-1.6805e+06 1.726e+06 -495.263
-1.68e+06 1.726e+06 -496.687
-1.6795e+06 1.726e+06 -499.988
-1.679e+06 1.726e+06 -503.039
-1.6785e+06 1.726e+06 -505.084
-1.678e+06 1.726e+06 -505.744
-1.6775e+06 1.726e+06 -505.142
-1.677e+06 1.726e+06 -503.928
-1.6765e+06 1.726e+06 -502.912
-1.676e+06 1.726e+06 -502.386
-1.6755e+06 1.726e+06 -502.2
-1.675e+06 1.726e+06 -501.121
-1.6745e+06 1.726e+06 -500.602
-1.674e+06 1.726e+06 -502.055
-1.6735e+06 1.726e+06 -504.437
-1.673e+06 1.726e+06 -505.679
-1.6725e+06 1.726e+06 -506.118
-1.672e+06 1.726e+06 -505.551
-1.6715e+06 1.726e+06 -503.249
-1.671e+06 1.726e+06 -500.535
-1.6705e+06 1.726e+06 -498.596
-1.67e+06 1.726e+06 -498.295
-1.6695e+06 1.726e+06 -498.431
-1.669e+06 1.726e+06 -498.955
-1.6685e+06 1.726e+06 -499.609
-1.668e+06 1.726e+06 -499.613
-1.6675e+06 1.726e+06 -499.795
-1.6835e+06 1.7265e+06 -496.409
-1.683e+06 1.7265e+06 -496.718
-1.6825e+06 1.7265e+06 -496.905
-1.682e+06 1.7265e+06 -497.492
-1.6815e+06 1.7265e+06 -497.124
-1.681e+06 1.7265e+06 -495.591
-1.6805e+06 1.7265e+06 -494.67
-1.68e+06 1.7265e+06 -496.007
-1.6795e+06 1.7265e+06 -499.491
-1.679e+06 1.7265e+06 -502.958
-1.6785e+06 1.7265e+06 -505.133
-1.678e+06 1.7265e+06 -505.556
-1.6775e+06 1.7265e+06 -504.83
-1.677e+06 1.7265e+06 -503.665
-1.6765e+06 1.7265e+06 -502.659
-1.676e+06 1.7265e+06 -501.875
-1.6755e+06 1.7265e+06 -501.187
-1.675e+06 1.7265e+06 -500.381
-1.6745e+06 1.7265e+06 -500.427
-1.674e+06 1.7265e+06 -501.664
-1.6735e+06 1.7265e+06 -503.844
-1.673e+06 1.7265e+06 -505.452
-1.6725e+06 1.7265e+06 -506.017
-1.672e+06 1.7265e+06 -505.177
-1.6715e+06 1.7265e+06 -502.899
-1.671e+06 1.7265e+06 -500.365
-1.6705e+06 1.7265e+06 -498.626
-1.67e+06 1.7265e+06 -498.164
-1.6695e+06 1.7265e+06 -498.653
-1.669e+06 1.7265e+06 -499.583
-1.6685e+06 1.7265e+06 -500.533
-1.668e+06 1.7265e+06 -500.521
-1.6675e+06 1.7265e+06 -500.404
-1.667e+06 1.7265e+06 -500.131
-1.6835e+06 1.727e+06 -497.292
-1.683e+06 1.727e+06 -497.211
-1.6825e+06 1.727e+06 -497.392
-1.682e+06 1.727e+06 -498.325
-1.6815e+06 1.727e+06 -497.317
-1.681e+06 1.727e+06 -495.693
-1.6805e+06 1.727e+06 -494.643
-1.68e+06 1.727e+06 -495.979
-1.6795e+06 1.727e+06 -499.213
-1.679e+06 1.727e+06 -502.575
-1.6785e+06 1.727e+06 -504.797
-1.678e+06 1.727e+06 -505.422
-1.6775e+06 1.727e+06 -504.732
-1.677e+06 1.727e+06 -503.363
-1.6765e+06 1.727e+06 -502.061
-1.676e+06 1.727e+06 -501.323
-1.6755e+06 1.727e+06 -501.027
-1.675e+06 1.727e+06 -500.828
-1.6745e+06 1.727e+06 -501.241
-1.674e+06 1.727e+06 -502.338
-1.6735e+06 1.727e+06 -503.851
-1.673e+06 1.727e+06 -505.336
-1.6725e+06 1.727e+06 -505.968
-1.672e+06 1.727e+06 -505.008
-1.6715e+06 1.727e+06 -502.711
-1.671e+06 1.727e+06 -500.211
-1.6705e+06 1.727e+06 -498.604
-1.67e+06 1.727e+06 -498.16
-1.6695e+06 1.727e+06 -498.758
-1.669e+06 1.727e+06 -499.83
-1.6685e+06 1.727e+06 -500.711
-1.668e+06 1.727e+06 -500.95
-1.6675e+06 1.727e+06 -500.838
-1.683e+06 1.7275e+06 -497.335
-1.6825e+06 1.7275e+06 -497.501
-1.682e+06 1.7275e+06 -497.994
-1.6815e+06 1.7275e+06 -497.411
-1.681e+06 1.7275e+06 -496.105
-1.6805e+06 1.7275e+06 -495.266
-1.68e+06 1.7275e+06 -496.227
-1.6795e+06 1.7275e+06 -499.114
-1.679e+06 1.7275e+06 -502.516
-1.6785e+06 1.7275e+06 -505.101
-1.678e+06 1.7275e+06 -505.584
-1.6775e+06 1.7275e+06 -504.631
-1.677e+06 1.7275e+06 -503.071
-1.6765e+06 1.7275e+06 -501.659
-1.676e+06 1.7275e+06 -500.977
-1.6755e+06 1.7275e+06 -500.97
-1.675e+06 1.7275e+06 -501.178
-1.6745e+06 1.7275e+06 -501.67
-1.674e+06 1.7275e+06 -502.595
-1.6735e+06 1.7275e+06 -503.923
-1.673e+06 1.7275e+06 -505.341
-1.6725e+06 1.7275e+06 -505.859
-1.672e+06 1.7275e+06 -504.892
-1.6715e+06 1.7275e+06 -502.589
-1.671e+06 1.7275e+06 -500.199
-1.6705e+06 1.7275e+06 -498.595
-1.67e+06 1.7275e+06 -498.133
-1.6695e+06 1.7275e+06 -498.739
-1.669e+06 1.7275e+06 -499.712
-1.6685e+06 1.7275e+06 -500.694
-1.668e+06 1.7275e+06 -501.208
-1.6675e+06 1.7275e+06 -501.146
-1.667e+06 1.7275e+06 -500.812
-1.6835e+06 1.728e+06 -497.379
-1.683e+06 1.728e+06 -497.3
-1.6825e+06 1.728e+06 -497.412
-1.682e+06 1.728e+06 -498.268
-1.6815e+06 1.728e+06 -497.274
-1.681e+06 1.728e+06 -495.837
-1.6805e+06 1.728e+06 -495.553
-1.68e+06 1.728e+06 -496.545
-1.6795e+06 1.728e+06 -499.293
-1.679e+06 1.728e+06 -502.395
-1.6785e+06 1.728e+06 -504.836
-1.678e+06 1.728e+06 -505.447
-1.6775e+06 1.728e+06 -504.487
-1.677e+06 1.728e+06 -502.891
-1.6765e+06 1.728e+06 -501.509
-1.676e+06 1.728e+06 -500.83
-1.6755e+06 1.728e+06 -500.832
-1.675e+06 1.728e+06 -501.108
-1.6745e+06 1.728e+06 -501.613
-1.674e+06 1.728e+06 -502.635
-1.6735e+06 1.728e+06 -503.972
-1.673e+06 1.728e+06 -505.247
-1.6725e+06 1.728e+06 -505.772
-1.672e+06 1.728e+06 -504.747
-1.6715e+06 1.728e+06 -502.531
-1.671e+06 1.728e+06 -500.166
-1.6705e+06 1.728e+06 -498.621
-1.67e+06 1.728e+06 -498.153
-1.6695e+06 1.728e+06 -498.75
-1.669e+06 1.728e+06 -499.787
-1.6685e+06 1.728e+06 -500.804
-1.668e+06 1.728e+06 -501.268
-1.6675e+06 1.728e+06 -501.274
-1.6835e+06 1.7285e+06 -497.188
-1.683e+06 1.7285e+06 -497.05
-1.6825e+06 1.7285e+06 -496.317
-1.682e+06 1.7285e+06 -496.692
-1.6815e+06 1.7285e+06 -495.543
-1.681e+06 1.7285e+06 -494.087
-1.6805e+06 1.7285e+06 -494.627
-1.68e+06 1.7285e+06 -496.376
-1.6795e+06 1.7285e+06 -498.881
-1.679e+06 1.7285e+06 -501.997
-1.6785e+06 1.7285e+06 -504.504
-1.678e+06 1.7285e+06 -505.368
-1.6775e+06 1.7285e+06 -504.445
-1.677e+06 1.7285e+06 -502.777
-1.6765e+06 1.7285e+06 -501.397
-1.676e+06 1.7285e+06 -500.694
-1.6755e+06 1.7285e+06 -500.666
-1.675e+06 1.7285e+06 -501.009
-1.6745e+06 1.7285e+06 -501.657
-1.674e+06 1.7285e+06 -502.697
-1.6735e+06 1.7285e+06 -503.957
-1.673e+06 1.7285e+06 -505.07
-1.6725e+06 1.7285e+06 -505.502
-1.672e+06 1.7285e+06 -504.642
-1.6715e+06 1.7285e+06 -502.419
-1.671e+06 1.7285e+06 -500.221
-1.6705e+06 1.7285e+06 -498.792
-1.67e+06 1.7285e+06 -498.377
-1.6695e+06 1.7285e+06 -498.892
-1.669e+06 1.7285e+06 -499.796
-1.6685e+06 1.7285e+06 -500.732
-1.668e+06 1.7285e+06 -501.338
-1.6675e+06 1.7285e+06 -501.395
-1.6835e+06 1.729e+06 -496.844
-1.683e+06 1.729e+06 -496.675
-1.6825e+06 1.729e+06 -495.246
-1.682e+06 1.729e+06 -493.252
-1.6815e+06 1.729e+06 -492.469
-1.681e+06 1.729e+06 -491.287
-1.6805e+06 1.729e+06 -490.739
-1.68e+06 1.729e+06 -494.508
-1.6795e+06 1.729e+06 -497.66
-1.679e+06 1.729e+06 -501.473
-1.6785e+06 1.729e+06 -504.372
-1.678e+06 1.729e+06 -505.271
-1.6775e+06 1.729e+06 -504.393
-1.677e+06 1.729e+06 -502.842
-1.6765e+06 1.729e+06 -501.463
[...]
POINT_DATA 7674
SCALARS T double
LOOKUP_TABLE default
78.298 55.7428 69.1076 79.0881 71.255 43.3162 12.1181 -15.4797 -34.8287 -34.4144 0.417729 45.2881 2.1513 -6.95881 -17.1527 2.60608 24.3464 40.2962 48.2346 54.8361 66.9916 66.6236 40.0267 2.84007 -29.3521 -47.7135 -45.9613 -26.6094 1.9617 31.9968 61.9338 87.7203 78.8205 34.3297 -8.93978 -14.7134 -11.3175 -21.879 -31.8907 -30.698 -29.0499 11.2014 -2.45997 -16.2543 -13.674 5.85321 27.7455 43.097 48.2166 49.9526 55.8116 51.7758 24.3474 -10.6335 -35.2516 -55.3684 -71.7265 -56.9211 1.31481 66.8179 116.925 150.26 153.805 121.145 56.9045 -10.6393 -28.7637 -18.2063 -24.3148 -36.6134 -39.6078 -40.4868 -40.9724 -33.2825 18.6669 22.7064 21.3314 12.0502 0.808092 -0.776582 12.4734 33.8618 54.1808 63.0941 58.7494 47.6509 31.7192 9.21787 -7.76234 -13.7031 -38.9958 -80.5866 -75.3737 13.8834 130.114 215.07 239.968 200.741 132.93 63.3409 -6.90639 -42.606 -37.3197 -38.4975 -47.4532 -51.6366 -52.6835 14.384 20.7486 24.8023 21.3565 13.7713 11.0067 20.6069 39.1412 59.6895 72.0999 65.7061 43.7519 23.5131 16.281 30.2785 54.5482 49.0372 9.00051 -1.54524 62.4473 165.047 249.147 255.349 176.144 81.1658 16.6985 -36.3943 -70.6408 -74.0501 -76.526 -81.0783 -79.3759 -72.9069 4.89373 10.8817 18.9181 22.4239 22.3713 23.6149 30.1797 40.6973 52.2624 60.964 57.533 42.5931 32.4959 43.5711 87.3717 155.182 199.505 189.071 152.013 133.214 142.667 163.858 143.447 66.9624 -11.5823 -59.8699 -94.412 -114.424 -118.58 -120.66 -118.88 -108.057 -92.682 -70.941 -6.20534 -2.73904 8.89706 20.1173 28.8432 34.9584 38.6323 40.35 41.681 43.8952 44.9246 44.6437 50.556 77.1777 144.198 251.079 343.542 369.226 313.559 209.332 109.017 40.0652 -12.0281 -58.6122 -96.5114 -121.288 -139.898 -150.908 -153.106 -151.317 -143.563 -126.616 -104.596 -16.8201 -1.55791 17.6674 33.889 44.2809 46.4491 41.3581 35.3773 34.1094 38.9099 49.5309 68.4596 106.002 182.449 302.465 421.043 476.015 418.692 261.248 90.2655 -32.4467 -104.956 -138.876 -156.053 -162.576 -166.407 -174.343 -176.499 -170.566 -158.199 -137.235 -109.744 -78.7005 -20.633 -23.9085 -8.09197 17.8497 40.5804 55.2758 57.1389 46.8578 35.4238 31.1191 37.6697 54.8427 81.0196 120.847 189.724 297.437 416.613 484.936 436.58 268.138 77.776 -57.1245 -137.812 -178.942 -197.737 -198.037 -189.904 -190.833 -190.557 -182.615 -168.018 -144.624 -111.276 -15.283 -19.2144 -4.58535 24.5726 51.2791 67.5153 69.3423 55.6429 38.6498 30.1463 36.9735 58.1071 86.5964 120.432 170.581 249.121 342.93 404.72 372.51 230.197 57.5891 -68.5733 -145.7 -189.001 -213.614 -221.825 -210.377 -196.84 -190.755 -186.827 -175.667 -149.494 -109.771 -3.48283 -2.24494 12.4446 38.5383 62.1782 75.4739 77.5123 63.8248 42.3458 31.0807 38.7815 62.9236 92.8941 118.755 149.033 192.381 242.977 277.226 258.605 168.821 44.2911 -59.3878 -124.642 -154.512 -171.205 -190.422 -188.52 -165.468 -156.94 -166.529 -177.5 -143.52 -91.5976 -36.1115 9.52652 18.832 34.5371 52.2371 68.2888 78.2398 81.1051 72.8586 54.0409 42.6857 51.5288 79.5388 111.046 132.742 149.87 166.12 175.594 171.773 157.177 135.05 84.0986 8.78831 -49.6612 -59.5059 -48.7103 -61.1356 -76.2584 -67.9198 -68.012 -94.1689 -126.991 -95.0823 -40.5923 20.111 34.7135 50.284 61.167 72.2767 81.6814 83.8488 78.2137 73.2071 65.1959 71.6304 103.609 134.233 158.49 174.883 182.218 176.356 159.178 154.608 183.573 191.898 146.587 94.89 93.1493 119.467 129.155 117.974 88.1759 69.5667 43.5198 26.6269 8.13242 32.6208 55.6481 24.713 41.0926 56.5229 66.021 75.1527 80.2177 85.9648 86.3981 84.7961 89.9534 100.384 126.558 157.838 192.997 222.121 235.574 244.219 248.182 262.818 305.806 342.997 344.601 310.034 280.919 275.514 297.19 294.102 207.984 174.377 161.791 162.77 121.186 88.0581 22.312 36.9791 54.4394 66.8986 74.4696 82.7003 89.591 93.7596 100.556 101.944 109.826 130.214 161.034 199.699 239.16 266.145 303.614 341.788 381.349 421.804 461.215 509.811 491.94 409.103 363.241 341.513 315.296 239.902 195.595 177.294 161.342 133.768 111.749 122.308 19.3772 27.6076 42.5478 61.9839 80.5016 92.3395 98.7164 107.022 113.929 110.671 112.076 128.944 153.614 183.187 220.824 260.666 310.095 371.978 413.348 449.778 485.105 529.316 517.856 439.822 372.958 324.984 283.429 211.411 151.656 117.499 97.8105 96.3129 110.841 130.652 23.4847 25.0461 36.726 65.0181 93.4122 110.682 119.726 124.337 128.071 128.781 126.948 128.428 140.501 155.188 182.889 224.013 264.252 314.457 346.267 382.061 423.646 459.114 451.852 390.855 318.787 271.429 234.635 162.215 95.7209 54.969 47.0542 65.161 101.684 32.6171 31.4141 49.9147 73.1305 104.466 130.799 140.885 141.432 141.586 140.122 137.458 128.608 129.393 137.261 153.927 181.974 205.006 211.859 219.549 259.896 311.605 350.424 344.301 293.121 230.654 179.531 133.398 89.1182 46.4039 14.8984 20.4358 54.2092 97.0303 139.072 37.5935 45.911 62.996 89.4451 113.941 136.315 146.175 145.678 144.468 139.644 130.247 117.923 119.791 131.905 145.758 160.676 161.981 144.308 134.69 161.118 197.489 222.555 222.301 186.772 140.899 94.3844 54.7924 30.1423 7.81278 -3.47821 11.7007 47.8614 92.343 38.678 42.4204 61.7724 76.2271 94.9123 116.35 133.92 141.776 142.77 140.198 128.176 109.521 92.2412 100.993 125.972 141.836 147.49 143.098 140.188 128.653 109.682 106.818 101.311 101.43 87.1478 64.3348 39.9543 22.1209 -5.20107 -16.6105 -14.87 3.68847 43.8217 87.9055 131.408 312.601 42.3885 57.1012 73.5381 92.4508 111.059 128.592 139.499 138.888 131.769 114.523 85.2216 56.7075 49.937 75.9186 102.548 107.486 121.813 137.535 139.455 96.9331 56.4282 25.943 10.4973 17.7959 16.663 11.05 -0.832771 -27.9513 -31.9544 -23.0118 0.320802 37.9077 82.501 325.756 30.5668 40.2078 58.7665 80.3111 102.352 122.567 132.287 129.227 119.239 102.903 69.4031 20.704 -20.4384 -22.5906 10.9532 42.6087 80.7844 107.81 112.002 91.4949 56.8472 23.7488 -2.82749 8.28066 0.478907 -16.3125 -26.6294 -40.701 -39.6654 -26.1631 -1.06158 35.1262 81.4437 123.932 331.323 330.879 24.6968 25.4493 41.5667 72.8907 102.222 117.734 125.232 117.138 102.815 90.2764 61.0165 8.45835 -46.5175 -83.5633 -69.9941 -5.21773 45.0438 81.8489 94.9296 86.7723 79.7924 74.5834 61.4016 43.9027 12.6551 -8.58251 -19.7443 -29.7046 -32.677 -24.1439 -1.33951 37.3074 80.3922 352.2 342.773 339.126 31.813 30.8336 45.7608 81.4779 109.249 126.449 123.835 106.556 88.4824 72.9311 51.2691 14.3918 -27.0677 -60.647 -62.1831 -10.6624 25.7645 50.5748 65.5745 68.8428 79.7839 104.313 101.52 59.6879 28.0804 14.6386 11.1273 -8.44616 -19.0817 -13.6615 4.05642 42.6087 84.2087 368.52 374.986 359.861 355.499 55.237 57.3529 74.7542 109.71 136.845 145.267 132.388 104.998 75.9355 53.0397 43.0142 33.1069 21.7895 16.6501 21.6915 18.1688 12.3602 8.82036 8.27887 25.6562 49.524 74.1878 77.4627 51.7124 31.0579 15.7639 11.9657 5.98695 -0.787657 5.15126 19.6874 56.1444 93.3235 389.015 404.349 380.386 359.825 343.072 91.2057 98.0302 117.612 155.845 183.881 179.623 159.061 117.62 77.971 48.6554 40.074 54.255 76.5347 89.1708 86.4343 51.1201 10.3932 -18.361 -27.3321 -8.41931 26.1032 40.8426 47.4419 48.2033 33.0951 16.4727 7.76346 17.0405 22.2285 34.1042 52.0368 77.2118 107.454 375.393 402.87 390.374 352.876 317.69 148.797 175.494 215.494 243.066 240.448 209.446 159.787 102.345 59.0961 46.9325 71.4365 108.954 133.14 136.199 89.7442 28.1619 -8.34017 -16.9795 2.86478 35.2904 51.4524 57.4256 60.1426 51.2547 38.3148 32.3177 36.0637 47.1788 62.1944 72.5438 90.945 117.12 146.073 332.003 361.083 364.092 320.074 283.879 259.674 172.169 200.251 234.613 277.579 317.097 328.312 293.474 225.469 151.285 92.4923 70.7757 86.7826 113.952 132.023 129.25 96.8947 48.8687 21.4598 18.8427 38.0257 64.6596 80.2652 84.728 86.8973 82.7282 74.4704 67.1256 65.9809 75.7119 85.1846 87.5742 99.4688 123.415 152.394 265.095 282.189 284.534 264.845 249.042 230.279 197.61 229.494 273.564 323.609 366.997 395.574 369.363 296.52 211.263 147.239 108.523 107.329 109.546 104.654 92.0635 79.66 74.2989 68.3693 72.0477 86.6592 108.032 119.477 122.346 119.447 116.941 118.695 115.284 106.144 101.128 99.5257 99.7027 101.841 129.685 197.331 193.287 200.125 209.645 216.465 207.093 196.974 227.934 266.537 319.265 371.837 418.68 416.283 338.667 265.302 209.637 174.5 147.8 121.817 97.0838 90.299 96.3389 112.386 123.828 134.981 146.378 165.117 170.367 160.122 148.742 142.149 154.148 181.454 157.343 122.299 94.7115 94.8392 101.026 136.081 170.511 170.001 148.095 131.204 139.77 161.82 186.13 179.499 199.558 227.407 279.049 332.572 376.313 385.963 330.078 279.911 252.82 232.077 190.401 149.147 117.645 116.949 138.326 162.039 178.905 192.706 205.829 224.93 234.373 218.211 178.621 134.793 145.424 210.698 196.158 152.083 107.4 93.8314 120.685 160.311 123.645 102.067 107.577 138.777 170.455 164.4 170.091 189.538 230.686 271.134 294.786 297.573 283.798 259.621 254.909 247.336 210.67 181.958 161.599 168.735 195.249 219.897 236.132 243.842 254.925 278.605 297.454 284.159 224.201 144.142 99.6022 129.634 188.135 207.069 207.067 189.569 198.739 220.944 238.736 120.722 95.2334 96.7983 132.793 169.244 194.362 157.265 156.927 166.406 190.829 214.938 230.15 229.326 231.104 223 223.163 221.254 215.078 213.314 212.642 225.423 258.568 287.388 302.035 304.437 305.673 316.139 327.484 316.438 271.512 205.987 110.612 96.2253 245.987 312.616 343.514 346.801 303.368 276.582 273.371 284.399 293.265 293.902 276.545 233.598 185.142 144.894 120.008 118.552 143.846 183.009 212.016 157.837 156.007 158.216 172.188 184.879 193.922 198.369 200.406 200.99 197.214 204.709 227.696 245.882 265.086 292.135 323.554 351.586 369.375 372.659 357.081 344.48 323.422 314.279 313.341 338.601 332.649 334.207 402.104 445.625 442.721 416.782 353.441 303.891 288.782 298.839 313.757 318.533 313.16 280.844 223.478 180.173 157.39 157.75 170.674 206.741 233.359 243.251 251.191 246.632 164.041 162.424 164.246 166.807 172.681 180.379 190.187 195.182 200.318 202.106 216.795 245.086 273.361 306.039 341.237 366.633 395.113 421.553 433.879 419.481 400.336 363.725 368.334 417.392 489.934 549.818 585.036 547.934 539.58 509.098 460.714 387.519 318.075 281.925 283.669 306.153 323.988 334.544 323.151 258.721 210.881 190.137 192.648 204.325 227.916 253.603 264.411 268.962 272.014 256.609 169.235 164.202 166.657 167.008 172.826 180.872 193.371 204.025 216.145 225.48 239.712 266.854 295.415 325.435 357.615 387.741 418.388 445.611 465.457 477.854 492.591 501.876 517.244 560.716 606.293 631.571 649.531 617.149 592.088 553.377 489.335 401.53 314.112 256.159 251.066 280.619 312.991 328.635 320.37 282.048 239.749 217.33 210.836 225.873 245.717 270.117 281.429 274.377 276.088 268.925 177.455 168.794 166.766 175.929 185.16 191.682 205.776 226.037 243.412 256.101 267.873 291.065 315.904 346.043 376.38 405.662 424.959 443.6 471.829 518.008 581.114 643.047 672.363 674.272 666.467 648.344 641.292 647.558 629.068 584.559 501.479 404.644 312.767 243.589 229.585 261.004 300.293 319.063 316.245 302.853 277.554 250.141 238.34 247.56 265.454 281.815 290.231 279.875 281.605 272.483 200.094 185.138 179.707 198.396 211.97 218.821 232.857 254.624 274.471 293.137 307.424 321.368 341.118 365.659 398.527 428.665 437.589 440.961 470.658 533.132 622.202 703.933 741.753 718.209 688.174 664.46 657.447 679.781 676.578 632.392 549.039 442.883 344.671 265.716 242.011 271.993 312.615 334.027 337.503 334.367 325.188 301.633 285.626 280.408 284.039 285.891 287.874 281.151 284.589 274.079 234.878 225.741 222.891 239.409 256.623 261.723 268.864 285.674 303.52 325.173 342.73 349.093 358.992 380.041 414.311 452.848 475.937 479.757 498.599 555.036 627.978 694.821 725.653 706.94 689.793 685.249 696.784 721.105 734.757 713.963 640.999 523.3 407.896 320.503 289.468 312.647 351.383 377.791 386.269 382.358 379.028 366.454 343.505 324.007 305.077 293.715 289.955 284.046 286.747 272.615 280.78 286.354 300.207 309.069 310.015 307.254 313.66 323.499 338.192 354.387 363.517 374.008 385.74 414.986 478.396 534.267 559.512 559.729 579.87 617.17 649.552 664.698 665.891 671.938 689.476 720.803 754.668 780.584 780.482 714.535 597.132 473.738 380.767 347.143 366.312 404.072 430.504 437.037 429.968 421.588 413.878 384.272 352.41 321.569 301.58 293.695 289.623 289.782 272.271 304.849 334.67 345.386 353.097 352.189 350.63 343.893 331.785 328.307 329.466 345.965 366.865 386.303 398.461 426.876 495.485 565.734 606.592 611.488 593.42 597.272 599.572 599.92 611.555 634.518 667.884 709.371 754.109 789.185 798.913 747.352 637.359 515.589 431.864 402.886 421.814 457.146 476.673 473.484 457.356 432.08 417.355 396.212 357.352 321.726 300.208 295.994 293.62 288.589 301.144 345.648 362.124 364.104 361.104 361.369 358.069 327.731 309.67 305.686 320.578 354.408 393.016 428.334 468.563 520.566 570.607 601.48 612.703 590.128 570.945 546.43 538.705 563.243 597.977 630.441 671.854 727.257 777.067 792.116 752.46 663.915 564.725 494.987 463.232 476.934 505.753 516.834 499.016 460.026 411.795 390.629 373.889 339.48 310.17 290.487 289.03 291.28 290.102 263.858 302.221 323.391 326.637 330.627 333.263 330.685 301.811 276.791 276.529 296.057 334.652 384.317 442.924 492.265 516.436 543.521 564.804 575.912 563.688 532.901 508.858 511.704 541.376 565.496 581.127 628.983 697.785 755.77 776.851 750.392 685.398 615.93 561.518 526.514 525.61 541.416 544.622 515.1 453.272 388.207 349.322 322.907 307.203 292.27 278.137 273.872 289.313 301.364 209.049 226.929 244.66 256.608 269.019 274.9 272.582 252.385 234.385 238.764 261.716 303.543 352.823 407.495 456.381 485.15 509.794 532.268 531.262 525.62 514.367 513.416 517.787 527.165 544.953 566.358 618.969 687.89 739.814 757.736 732.504 694.027 654.787 615.7 578.682 555.701 550.141 545.442 513.084 433.417 357.762 313.848 286.786 294.495 292.483 290.601 290.402 303.618 318.918 147.688 155.393 166.388 188.411 201.88 209.489 208.966 197.787 189.586 196.559 219.545 259.152 307.948 354.842 398.129 444.588 483.031 505.614 501.753 509.896 522.45 522.531 514.732 522.886 558.49 597.717 642.392 691.473 725.365 738.72 727.266 698.029 667.369 636.934 597.436 556.156 529.579 516.177 489.16 418.293 341.409 310.07 298.061 317.851 335.898 342.436 340.533 345.279 345.625 349.196 95.8881 99.7318 105.388 128.986 144.265 153.297 155.296 148.914 148.62 151.879 173.889 216.92 265.944 308.788 350.047 414.025 466.361 492.843 512.264 526.219 528.751 526.337 531.305 553.464 590.59 626.701 664.302 704.278 734.65 744.134 727.963 694.145 659.291 625.147 583.479 537.106 499.747 478.184 455.537 415.029 359.12 335.13 325.605 345.159 368.929 385.936 397.238 396.557 385.286 61.1831 63.7768 69.8994 90.4182 106.837 116.26 121.569 120.337 123.425 129.69 151.023 191.115 237.748 280.222 332.076 401.958 456.826 495.589 532.057 538.428 532.797 540.334 555.316 579.166 611.712 648.14 686.45 721.641 746.434 752.226 733.134 693.509 647.728 603.434 561.211 520.795 486.765 465.037 445.451 403.694 373.346 378.018 379.755 390.34 408.644 423.821 428.645 423.611 419.264 396.667 41.5561 41.4028 51.9562 70.3419 88.0017 97.9087 104.973 107.8 112.776 120.547 137.58 175.223 217.449 259.654 320.7 391.234 444.451 498.918 538.508 539.07 535.112 549.852 573.374 602.169 634.808 668.658 702.543 734.945 758.904 763.55 742.119 697.782 644.274 592.586 551.026 520.325 493.826 474.549 468.994 432.34 399.129 413.383 425.217 437.573 458.329 472.276 468.669 454.231 441.324 30.4884 35.7639 46.3077 64.6688 80.4109 91.7342 99.6076 104.262 110.148 118.8 135.494 171.343 207.335 245.443 304.892 374.711 433.985 498.764 536.317 536.294 542.418 563.695 593.069 624.983 655.275 682.998 713.183 746.806 773.33 778.376 755.509 708.749 652.412 599.353 559.608 535.272 512.568 487.371 496.376 490.137 454.364 455.852 467.695 485.187 507.867 521.219 512.296 488.618 468.308 22.5415 37.8912 48.2451 68.5519 81.7093 92.2526 99.5007 105.978 113.031 123.554 141.064 170.422 202.195 236.924 293.216 361.855 426.219 490.156 523.804 532.9 550.669 579.365 611.725 647.854 678.287 701.497 729.422 766.027 795.788 801.439 777.295 728.942 670.591 617.26 578.872 557.79 543.707 528.859 518.753 499.838 486.991 497.693 510.775 530.924 552.076 560.853 546.366 518.443 497.814 461.329 14.2285 40.5975 57.6928 73.3128 84.0973 91.9988 100.638 110.296 119.542 128.108 143.841 171.463 201.405 238.734 294.431 357.114 420.749 479.061 513.737 532.243 558.071 590.99 628.449 674.291 714.279 741.628 769.684 806.163 834.064 836.423 808.986 758.835 699.334 645.574 606.9 584.165 572.031 564.887 557.491 537.117 533.403 541.928 555.393 575.195 593.404 595.71 574.748 543.713 521.604 -14.2327 28.1781 56.2581 64.6099 75.8393 87.7004 102.553 112.958 124.752 134.861 150.574 175.159 202.097 239.985 293.338 351.571 415.174 470.482 506.194 529.734 560.655 596.092 639.958 701.578 763.169 807.387 838.965 866.938 882.514 875.577 843.816 793.319 735.93 683.334 641.086 610.727 594.085 586.356 578.972 568.47 566.731 577.352 593.49 614.143 633.826 634.889 609.87 572.826 543.55 500.806 -90.9907 -65.5495 -22.2234 11.8869 24.9309 42.434 65.4852 87.8677 105.172 123.603 141.904 158.939 177.788 197.847 233.098 285.61 343.694 409.175 464.853 502.116 529.126 561.582 598.38 646.858 721.539 804.322 869.021 906.148 922.072 921.132 903.793 870.095 822.974 770.56 720.378 674.024 633.854 608.015 595.886 587.437 578.181 578.878 593.572 614.028 637.56 661.355 667.092 642.949 598.638 560.451 -132.356 -106.692 -73.8509 -40.2819 -10.2157 24.4997 58.1066 85.1378 113.425 141.365 161.86 174.947 186.397 217.156 270.565 334.362 404.448 464.958 503.778 531.446 560.28 597.164 647.075 723.474 814.028 890.378 932.194 941.409 930.953 909.76 880.492 842.52 798.028 750.324 700.726 652.997 614.878 590.917 578.613 572.13 576.468 592.977 613.645 635.94 659.238 667.915 646.788 601.509 559.341 505.736 -202.305 -191.729 -162.701 -113.907 -68.6852 -25.0257 14.4321 54.233 93.0614 127.281 150.5 160.054 167.852 196.127 252.228 319.627 395.208 465.297 506.571 531.235 553.551 583.423 630.712 699.32 784.035 860.867 906.47 918.421 910.931 896.805 879.84 857.646 826.625 785.829 736.684 684.051 632.193 586.561 560.569 555.87 564.237 579.067 594.241 609.757 626.884 632.613 613.587 575.617 537.507 -258.126 -251.719 -225.651 -178.11 -124.344 -68.7127 -21.9796 22.37 67.3944 102.541 127.002 142.187 153.439 178.537 230.099 299.132 385.37 463.98 501.79 524.847 544.369 564.669 602.142 659.738 730.486 798.322 846.05 869.483 876.89 878.018 877.429 874.992 865.645 843.772 806.338 753.158 686.478 613.83 560.75 544.677 548.264 555.179 560.771 567.789 577.658 579.25 563.663 538.295 514.51 -295.386 -296.342 -278.742 -228.33 -167.892 -109.245 -56.4412 -8.88284 39.4651 75.8387 106.212 130.121 143.567 164.603 210.589 286.028 374.824 450.637 490.383 533.601 554.368 552.393 584.136 632.46 683.731 732.935 777.187 816.767 846.699 865.337 880.274 897.751 912.427 914.935 896.218 850.579 779.874 693.503 614.565 564.838 538.295 523.471 517.736 520.289 526.948 527.223 518.001 502.462 493.542 469.573 -314.682 -319.314 -305.488 -261.925 -204.098 -147.336 -90.8318 -37.3328 16.7145 60.323 99.1325 127.096 144.103 169.251 210.396 281.453 366.22 435.13 497.271 565.579 583.754 564.527 610.144 653.566 669.282 689.371 721.827 776.089 830.573 869.112 898.618 926.002 949.458 963.557 959.137 930.636 878.239 803.019 710.707 616.196 538.615 490.584 473.793 477.87 488.109 488.953 486.338 476.558 459.538 -307.979 -314.459 -302.399 -273.274 -231.936 -183.641 -122.047 -61.5862 -2.08546 52.6285 100.886 133.24 158.61 188.991 215.219 279.535 363.916 424.899 506.443 598.124 639.506 653.049 691.37 712.791 695.097 678.766 695.194 754.198 828.069 887.957 924.124 937.927 945.777 958.736 965.761 962.903 942.682 892.024 799.329 672.463 550.82 469.994 439.796 447.314 465.685 475.268 467.278 464.477 451.3 437.97 -282.762 -290.376 -280.523 -266.688 -244.407 -209.637 -150.561 -80.743 -11.1872 57.0376 112.415 152.129 187.633 220.048 236.487 288.662 361.617 416.724 502.794 622.865 720.693 797.804 814.68 788.783 742.464 692.443 692.732 743.043 824.802 893.692 916.024 905.383 896.722 907 921.45 945.171 958.189 931.817 846.649 707.204 562.671 463.182 423.724 432.025 452.306 469.446 475.296 466.033 443.185 -236.573 -252.701 -253.288 -250.782 -244.368 -222.504 -167.761 -85.0113 -5.07812 69.1298 129.433 177.457 223.699 261.687 274.796 