# vtk DataFile Version 2.0
3D Data
ASCII
DATASET UNSTRUCTURED_GRID
POINTS 7822 double 
-1.6705e+06 1.7245e+06 -509.391
-1.681e+06 1.725e+06 -495.578
-1.6805e+06 1.725e+06 -498.077
-1.68e+06 1.725e+06 -501.505
-1.6795e+06 1.725e+06 -504.916
-1.679e+06 1.725e+06 -508.17
-1.6785e+06 1.725e+06 -510.316
-1.675e+06 1.725e+06 -509.295
-1.6745e+06 1.725e+06 -510.295
-1.674e+06 1.725e+06 -512.019
-1.6725e+06 1.725e+06 -512.666
-1.6715e+06 1.725e+06 -510.858
-1.671e+06 1.725e+06 -509.621
-1.6705e+06 1.725e+06 -508.618
-1.67e+06 1.725e+06 -508.37
-1.6695e+06 1.725e+06 -507.567
-1.669e+06 1.725e+06 -507.459
-1.667e+06 1.725e+06 -507.746
-1.6665e+06 1.725e+06 -506.999
-1.6655e+06 1.725e+06 -506.947
-1.6645e+06 1.725e+06 -507.705
-1.664e+06 1.725e+06 -507.67
-1.682e+06 1.7255e+06 -496.821
-1.6815e+06 1.7255e+06 -495.757
-1.681e+06 1.7255e+06 -495.679
-1.6805e+06 1.7255e+06 -496.839
-1.68e+06 1.7255e+06 -499.472
-1.6795e+06 1.7255e+06 -503.383
-1.679e+06 1.7255e+06 -507.046
-1.6785e+06 1.7255e+06 -509.613
-1.678e+06 1.7255e+06 -510.301
-1.6775e+06 1.7255e+06 -509.837
-1.677e+06 1.7255e+06 -509.085
-1.675e+06 1.7255e+06 -506.487
-1.6745e+06 1.7255e+06 -506.753
-1.674e+06 1.7255e+06 -508.163
-1.6735e+06 1.7255e+06 -510.887
-1.673e+06 1.7255e+06 -512.067
-1.6725e+06 1.7255e+06 -512.484
-1.672e+06 1.7255e+06 -511.669
-1.6715e+06 1.7255e+06 -510.418
-1.671e+06 1.7255e+06 -509.034
-1.6705e+06 1.7255e+06 -507.889
-1.67e+06 1.7255e+06 -507.644
-1.6695e+06 1.7255e+06 -507.594
-1.669e+06 1.7255e+06 -507.767
-1.6685e+06 1.7255e+06 -508.586
-1.668e+06 1.7255e+06 -509.57
-1.6675e+06 1.7255e+06 -508.841
-1.667e+06 1.7255e+06 -507.719
-1.6665e+06 1.7255e+06 -506.831
-1.666e+06 1.7255e+06 -506.5
-1.6655e+06 1.7255e+06 -506.644
-1.665e+06 1.7255e+06 -507.187
-1.6645e+06 1.7255e+06 -507.502
-1.664e+06 1.7255e+06 -507.577
-1.683e+06 1.726e+06 -498.039
-1.6825e+06 1.726e+06 -497.638
-1.682e+06 1.726e+06 -496.933
-1.6815e+06 1.726e+06 -495.541
-1.681e+06 1.726e+06 -494.518
-1.6805e+06 1.726e+06 -494.825
-1.68e+06 1.726e+06 -497.772
-1.6795e+06 1.726e+06 -502.31
-1.679e+06 1.726e+06 -506.511
-1.6785e+06 1.726e+06 -509.402
-1.678e+06 1.726e+06 -510.331
-1.6775e+06 1.726e+06 -509.89
-1.677e+06 1.726e+06 -508.882
-1.6765e+06 1.726e+06 -507.964
-1.676e+06 1.726e+06 -507.312
-1.6755e+06 1.726e+06 -506.566
-1.675e+06 1.726e+06 -505.644
-1.6745e+06 1.726e+06 -505.398
-1.674e+06 1.726e+06 -506.784
-1.6735e+06 1.726e+06 -509.422
-1.673e+06 1.726e+06 -511.169
-1.6725e+06 1.726e+06 -511.829
-1.672e+06 1.726e+06 -511.361
-1.6715e+06 1.726e+06 -510.11
-1.671e+06 1.726e+06 -508.64
-1.6705e+06 1.726e+06 -507.411
-1.67e+06 1.726e+06 -507.029
-1.6695e+06 1.726e+06 -507.571
-1.669e+06 1.726e+06 -508.186
-1.6685e+06 1.726e+06 -508.869
-1.668e+06 1.726e+06 -509.462
-1.6675e+06 1.726e+06 -508.992
-1.667e+06 1.726e+06 -507.869
-1.6665e+06 1.726e+06 -506.878
-1.666e+06 1.726e+06 -506.434
-1.6655e+06 1.726e+06 -506.523
-1.665e+06 1.726e+06 -506.947
-1.6645e+06 1.726e+06 -507.307
-1.664e+06 1.726e+06 -507.535
-1.6635e+06 1.726e+06 -507.545
-1.6835e+06 1.7265e+06 -499.153
-1.683e+06 1.7265e+06 -498.551
-1.6825e+06 1.7265e+06 -497.984
-1.682e+06 1.7265e+06 -497.025
-1.6815e+06 1.7265e+06 -495.386
-1.681e+06 1.7265e+06 -494.058
-1.6805e+06 1.7265e+06 -494.545
-1.68e+06 1.7265e+06 -497.578
-1.6795e+06 1.7265e+06 -501.867
-1.679e+06 1.7265e+06 -506.205
-1.6785e+06 1.7265e+06 -509.406
-1.678e+06 1.7265e+06 -510.527
-1.6775e+06 1.7265e+06 -510.074
-1.677e+06 1.7265e+06 -508.913
-1.6765e+06 1.7265e+06 -507.915
-1.676e+06 1.7265e+06 -507.169
-1.6755e+06 1.7265e+06 -506.569
-1.675e+06 1.7265e+06 -506.104
-1.6745e+06 1.7265e+06 -506.179
-1.674e+06 1.7265e+06 -507.071
-1.6735e+06 1.7265e+06 -508.963
-1.673e+06 1.7265e+06 -510.835
-1.6725e+06 1.7265e+06 -511.78
-1.672e+06 1.7265e+06 -511.293
-1.6715e+06 1.7265e+06 -509.935
-1.671e+06 1.7265e+06 -508.387
-1.6705e+06 1.7265e+06 -507.211
-1.67e+06 1.7265e+06 -507.051
-1.6695e+06 1.7265e+06 -507.67
-1.669e+06 1.7265e+06 -508.494
-1.6685e+06 1.7265e+06 -509.414
-1.668e+06 1.7265e+06 -510.035
-1.6675e+06 1.7265e+06 -509.214
-1.667e+06 1.7265e+06 -507.866
-1.6665e+06 1.7265e+06 -506.7
-1.666e+06 1.7265e+06 -506.406
-1.6655e+06 1.7265e+06 -506.542
-1.665e+06 1.7265e+06 -506.962
-1.6645e+06 1.7265e+06 -507.268
-1.664e+06 1.7265e+06 -507.555
-1.6635e+06 1.7265e+06 -507.722
-1.6835e+06 1.727e+06 -499.886
-1.683e+06 1.727e+06 -499.328
-1.6825e+06 1.727e+06 -498.569
-1.682e+06 1.727e+06 -497.304
-1.6815e+06 1.727e+06 -495.64
-1.681e+06 1.727e+06 -494.532
-1.6805e+06 1.727e+06 -494.938
-1.68e+06 1.727e+06 -497.602
-1.6795e+06 1.727e+06 -501.783
-1.679e+06 1.727e+06 -506.173
-1.6785e+06 1.727e+06 -509.307
-1.678e+06 1.727e+06 -510.5
-1.6775e+06 1.727e+06 -510.056
-1.677e+06 1.727e+06 -508.81
-1.6765e+06 1.727e+06 -507.687
-1.676e+06 1.727e+06 -507.073
-1.6755e+06 1.727e+06 -506.762
-1.675e+06 1.727e+06 -506.876
-1.6745e+06 1.727e+06 -507.211
-1.674e+06 1.727e+06 -507.642
-1.6735e+06 1.727e+06 -509.178
-1.673e+06 1.727e+06 -510.796
-1.6725e+06 1.727e+06 -511.683
-1.672e+06 1.727e+06 -511.069
-1.6715e+06 1.727e+06 -509.738
-1.671e+06 1.727e+06 -508.305
-1.6705e+06 1.727e+06 -507.341
-1.67e+06 1.727e+06 -507.262
-1.6695e+06 1.727e+06 -507.914
-1.669e+06 1.727e+06 -508.964
-1.6685e+06 1.727e+06 -509.872
-1.668e+06 1.727e+06 -510.157
-1.6675e+06 1.727e+06 -509.232
-1.667e+06 1.727e+06 -507.908
-1.6665e+06 1.727e+06 -506.892
-1.666e+06 1.727e+06 -506.483
-1.6655e+06 1.727e+06 -506.616
-1.665e+06 1.727e+06 -507.083
-1.6645e+06 1.727e+06 -507.606
-1.664e+06 1.727e+06 -507.781
-1.6635e+06 1.727e+06 -507.862
-1.663e+06 1.727e+06 -507.914
-1.6835e+06 1.7275e+06 -500.466
-1.683e+06 1.7275e+06 -499.869
-1.6825e+06 1.7275e+06 -498.899
-1.682e+06 1.7275e+06 -497.497
-1.6815e+06 1.7275e+06 -495.852
-1.681e+06 1.7275e+06 -494.886
-1.6805e+06 1.7275e+06 -495.197
-1.68e+06 1.7275e+06 -497.8
-1.6795e+06 1.7275e+06 -501.814
-1.679e+06 1.7275e+06 -506.044
-1.6785e+06 1.7275e+06 -509.336
-1.678e+06 1.7275e+06 -510.592
-1.6775e+06 1.7275e+06 -510.058
-1.677e+06 1.7275e+06 -508.637
-1.6765e+06 1.7275e+06 -507.227
-1.676e+06 1.7275e+06 -506.755
-1.6755e+06 1.7275e+06 -506.755
-1.675e+06 1.7275e+06 -507.042
-1.6745e+06 1.7275e+06 -507.494
-1.674e+06 1.7275e+06 -508.157
-1.6735e+06 1.7275e+06 -509.438
-1.673e+06 1.7275e+06 -510.74
-1.6725e+06 1.7275e+06 -511.364
-1.672e+06 1.7275e+06 -510.877
-1.6715e+06 1.7275e+06 -509.644
-1.671e+06 1.7275e+06 -508.21
-1.6705e+06 1.7275e+06 -507.15
-1.67e+06 1.7275e+06 -507.253
-1.6695e+06 1.7275e+06 -508.145
-1.669e+06 1.7275e+06 -509.262
-1.6685e+06 1.7275e+06 -510.013
-1.668e+06 1.7275e+06 -509.978
-1.6675e+06 1.7275e+06 -509.141
-1.667e+06 1.7275e+06 -507.903
-1.6665e+06 1.7275e+06 -506.789
-1.666e+06 1.7275e+06 -506.474
-1.6655e+06 1.7275e+06 -506.647
-1.665e+06 1.7275e+06 -507.109
-1.6645e+06 1.7275e+06 -507.531
-1.664e+06 1.7275e+06 -507.778
-1.6635e+06 1.7275e+06 -507.937
-1.663e+06 1.7275e+06 -508.01
-1.684e+06 1.728e+06 -501.369
-1.6835e+06 1.728e+06 -500.909
-1.683e+06 1.728e+06 -500.183
-1.6825e+06 1.728e+06 -499.009
-1.682e+06 1.728e+06 -497.456
-1.6815e+06 1.728e+06 -495.9
-1.681e+06 1.728e+06 -495.164
-1.6805e+06 1.728e+06 -495.693
-1.68e+06 1.728e+06 -497.727
-1.6795e+06 1.728e+06 -501.576
-1.679e+06 1.728e+06 -505.901
-1.6785e+06 1.728e+06 -509.498
-1.678e+06 1.728e+06 -510.673
-1.6775e+06 1.728e+06 -510.042
-1.677e+06 1.728e+06 -508.58
-1.6765e+06 1.728e+06 -507.233
-1.676e+06 1.728e+06 -506.643
-1.6755e+06 1.728e+06 -506.644
-1.675e+06 1.728e+06 -506.983
-1.6745e+06 1.728e+06 -507.516
-1.674e+06 1.728e+06 -508.326
-1.6735e+06 1.728e+06 -509.596
-1.673e+06 1.728e+06 -510.811
-1.6725e+06 1.728e+06 -511.488
-1.672e+06 1.728e+06 -510.772
-1.6715e+06 1.728e+06 -509.508
-1.671e+06 1.728e+06 -508.2
-1.6705e+06 1.728e+06 -507.361
-1.67e+06 1.728e+06 -507.409
-1.6695e+06 1.728e+06 -508.306
-1.669e+06 1.728e+06 -509.39
-1.6685e+06 1.728e+06 -510.044
-1.668e+06 1.728e+06 -509.849
-1.6675e+06 1.728e+06 -509.05
-1.667e+06 1.728e+06 -507.966
-1.6665e+06 1.728e+06 -507.03
-1.666e+06 1.728e+06 -506.585
-1.6655e+06 1.728e+06 -506.657
-1.665e+06 1.728e+06 -507.028
-1.6645e+06 1.728e+06 -507.449
-1.664e+06 1.728e+06 -507.789
-1.6635e+06 1.728e+06 -508.022
-1.663e+06 1.728e+06 -508.11
-1.6835e+06 1.7285e+06 -501.223
-1.683e+06 1.7285e+06 -500.354
-1.6825e+06 1.7285e+06 -498.978
-1.682e+06 1.7285e+06 -497.187
-1.6815e+06 1.7285e+06 -495.373
-1.681e+06 1.7285e+06 -494.319
-1.6805e+06 1.7285e+06 -495.328
-1.68e+06 1.7285e+06 -496.626
-1.6795e+06 1.7285e+06 -500.528
-1.679e+06 1.7285e+06 -505.269
-1.6785e+06 1.7285e+06 -508.906
-1.678e+06 1.7285e+06 -510.414
-1.6775e+06 1.7285e+06 -510.062
-1.677e+06 1.7285e+06 -508.713
-1.6765e+06 1.7285e+06 -507.285
-1.676e+06 1.7285e+06 -506.537
-1.6755e+06 1.7285e+06 -506.494
-1.675e+06 1.7285e+06 -506.896
-1.6745e+06 1.7285e+06 -507.561
-1.674e+06 1.7285e+06 -508.469
-1.6735e+06 1.7285e+06 -509.657
-1.673e+06 1.7285e+06 -510.667
-1.6725e+06 1.7285e+06 -511.004
-1.672e+06 1.7285e+06 -510.457
-1.6715e+06 1.7285e+06 -509.438
-1.671e+06 1.7285e+06 -508.314
-1.6705e+06 1.7285e+06 -507.572
-1.67e+06 1.7285e+06 -507.594
-1.6695e+06 1.7285e+06 -508.459
-1.669e+06 1.7285e+06 -509.417
-1.6685e+06 1.7285e+06 -509.859
-1.668e+06 1.7285e+06 -509.694
-1.6675e+06 1.7285e+06 -508.997
-1.667e+06 1.7285e+06 -508.051
-1.6665e+06 1.7285e+06 -507.135
-1.666e+06 1.7285e+06 -506.569
-1.6655e+06 1.7285e+06 -506.648
-1.665e+06 1.7285e+06 -507.057
-1.6645e+06 1.7285e+06 -507.551
-1.664e+06 1.7285e+06 -507.928
-1.6635e+06 1.7285e+06 -508.131
-1.663e+06 1.7285e+06 -508.19
-1.6835e+06 1.729e+06 -501.559
-1.683e+06 1.729e+06 -500.607
-1.6825e+06 1.729e+06 -498.998
-1.682e+06 1.729e+06 -496.759
-1.6815e+06 1.729e+06 -494.397
-1.681e+06 1.729e+06 -492.484
-1.6805e+06 1.729e+06 -491.862
-1.68e+06 1.729e+06 -494.355
-1.6795e+06 1.729e+06 -499.18
-1.679e+06 1.729e+06 -504.527
-1.6785e+06 1.729e+06 -508.821
-1.678e+06 1.729e+06 -510.607
-1.6775e+06 1.729e+06 -510.275
-1.677e+06 1.729e+06 -508.847
-1.6765e+06 1.729e+06 -507.358
[...]
POINT_DATA 7822
SCALARS grav_accel double
LOOKUP_TABLE default
-1.07081e-05 -6.61304e-05 -6.38962e-05 -6.1712e-05 -5.95634e-05 -5.73247e-05 -5.48844e-05 -2.99051e-05 -2.62614e-05 -2.29473e-05 -1.47392e-05 -1.17478e-05 -1.08326e-05 -9.94016e-06 -9.02255e-06 -8.10258e-06 -7.15136e-06 -3.25317e-06 -2.12081e-06 3.82921e-07 2.97436e-06 4.2518e-06 -7.29087e-05 -7.07593e-05 -6.85609e-05 -6.63754e-05 -6.42529e-05 -6.21694e-05 -5.99299e-05 -5.73263e-05 -5.43461e-05 -5.10176e-05 -4.72796e-05 -2.94942e-05 -2.53388e-05 -2.16543e-05 -1.83222e-05 -1.54483e-05 -1.32171e-05 -1.16588e-05 -1.06804e-05 -9.96739e-06 -9.19588e-06 -8.30321e-06 -7.39524e-06 -6.48238e-06 -5.60877e-06 -4.81592e-06 -4.05481e-06 -3.20777e-06 -2.19262e-06 -1.02902e-06 2.13163e-07 1.48121e-06 2.74895e-06 4.00536e-06 -7.97332e-05 -7.77445e-05 -7.5709e-05 -7.36099e-05 -7.14512e-05 -6.92933e-05 -6.71835e-05 -6.5107e-05 -6.28485e-05 -6.01213e-05 -5.68987e-05 -5.33099e-05 -4.92956e-05 -4.47419e-05 -3.97236e-05 -3.4481e-05 -2.93775e-05 -2.47676e-05 -2.07491e-05 -1.72625e-05 -1.44103e-05 -1.22963e-05 -1.08931e-05 -1.00329e-05 -9.34409e-06 -8.51838e-06 -7.53877e-06 -6.5568e-06 -5.61916e-06 -4.79593e-06 -4.15118e-06 -3.61594e-06 -2.98674e-06 -2.10678e-06 -1.02489e-06 1.51808e-07 1.36744e-06 2.59548e-06 3.82045e-06 5.03489e-06 -8.45966e-05 -8.28577e-05 -8.1018e-05 -7.9079e-05 -7.70427e-05 -7.49256e-05 -7.2769e-05 -7.06038e-05 -6.84132e-05 -6.60283e-05 -6.31997e-05 -5.98649e-05 -5.60881e-05 -5.17691e-05 -4.67403e-05 -4.10713e-05 -3.52035e-05 -2.96412e-05 -2.47178e-05 -2.05291e-05 -1.70308e-05 -1.42435e-05 -1.21813e-05 -1.07552e-05 -9.76466e-06 -8.88578e-06 -7.88875e-06 -6.78392e-06 -5.69725e-06 -4.70759e-06 -3.91124e-06 -3.37483e-06 -3.01671e-06 -2.58199e-06 -1.84987e-06 -8.78381e-07 2.08021e-07 1.35257e-06 2.52633e-06 3.70884e-06 4.88744e-06 -8.80443e-05 -8.65876e-05 -8.49415e-05 -8.31329e-05 -8.11871e-05 -7.91242e-05 -7.69713e-05 -7.47372e-05 -7.2386e-05 -6.9804e-05 -6.68395e-05 -6.34097e-05 -5.94654e-05 -5.48529e-05 -4.93555e-05 -4.30537e-05 -3.65802e-05 -3.05813e-05 -2.53984e-05 -2.11187e-05 -1.76654e-05 -1.49182e-05 -1.27759e-05 -1.11168e-05 -9.79099e-06 -8.59091e-06 -7.37106e-06 -6.12861e-06 -4.94316e-06 -3.90137e-06 -3.09908e-06 -2.59676e-06 -2.32681e-06 -2.03297e-06 -1.44958e-06 -6.01e-07 3.84667e-07 1.44788e-06 2.55663e-06 3.68619e-06 4.81972e-06 5.94919e-06 -9.20501e-05 -9.09898e-05 -8.96289e-05 -8.80185e-05 -8.62307e-05 -8.42753e-05 -8.21413e-05 -7.9825e-05 -7.73062e-05 -7.45163e-05 -7.13564e-05 -6.77429e-05 -6.35849e-05 -5.87001e-05 -5.28284e-05 -4.60134e-05 -3.89836e-05 -3.25239e-05 -2.70396e-05 -2.25964e-05 -1.90588e-05 -1.61883e-05 -1.3784e-05 -1.17366e-05 -9.97757e-06 -8.4111e-06 -6.94628e-06 -5.55325e-06 -4.27565e-06 -3.18531e-06 -2.35533e-06 -1.83953e-06 -1.59435e-06 -1.38454e-06 -9.25209e-07 -1.95564e-07 6.89693e-07 1.66917e-06 2.70635e-06 3.77314e-06 4.85053e-06 5.92959e-06 -9.69356e-05 -9.65669e-05 -9.60589e-05 -9.5162e-05 -9.38812e-05 -9.23615e-05 -9.05927e-05 -8.84893e-05 -8.60582e-05 -8.33541e-05 -8.03439e-05 -7.69173e-05 -7.29909e-05 -6.85111e-05 -6.3323e-05 -5.7165e-05 -5.00084e-05 -4.25151e-05 -3.55668e-05 -2.96743e-05 -2.49071e-05 -2.10523e-05 -1.77979e-05 -1.49281e-05 -1.23714e-05 -1.01271e-05 -8.17929e-06 -6.47413e-06 -4.94196e-06 -3.5873e-06 -2.45438e-06 -1.59483e-06 -1.05746e-06 -8.13299e-07 -6.47191e-07 -2.75745e-07 3.48477e-07 1.14199e-06 2.04104e-06 3.0024e-06 3.99549e-06 5.00283e-06 6.01757e-06 -0.000101534 -0.000101718 -0.000101501 -0.000100761 -9.96586e-05 -9.81497e-05 -9.61052e-05 -9.35652e-05 -9.06716e-05 -8.74164e-05 -8.36311e-05 -7.92295e-05 -7.42482e-05 -6.86221e-05 -6.21596e-05 -5.48051e-05 -4.70018e-05 -3.95786e-05 -3.31401e-05 -2.78204e-05 -2.33736e-05 -1.94839e-05 -1.59897e-05 -1.28575e-05 -1.00989e-05 -7.74395e-06 -5.79319e-06 -4.15508e-06 -2.7523e-06 -1.58389e-06 -7.05849e-07 -1.86173e-07 2.40359e-08 1.66543e-07 4.9613e-07 1.05439e-06 1.77782e-06 2.60363e-06 3.48444e-06 4.38865e-06 5.30332e-06 6.21955e-06 -0.000106929 -0.00010785 -0.000108465 -0.000108478 -0.000107932 -0.000106763 -0.000104876 -0.000102301 -9.9218e-05 -9.5643e-05 -9.13893e-05 -8.63859e-05 -8.07226e-05 -7.44571e-05 -6.75542e-05 -5.99957e-05 -5.19919e-05 -4.41248e-05 -3.70096e-05 -3.08899e-05 -2.55968e-05 -2.0913e-05 -1.67358e-05 -1.30194e-05 -9.74938e-06 -6.97255e-06 -4.7582e-06 -3.0307e-06 -1.61109e-06 -4.27863e-07 4.54025e-07 8.71815e-07 9.93329e-07 1.14421e-06 1.47222e-06 1.99414e-06 2.66212e-06 3.41415e-06 4.19937e-06 4.9858e-06 5.76107e-06 -0.000112797 -0.000114451 -0.000115887 -0.000116674 -0.000116718 -0.000115977 -0.000114391 -0.000111936 -0.000108677 -0.000104672 -9.98387e-05 -9.41406e-05 -8.768e-05 -8.06286e-05 -7.31453e-05 -6.52432e-05 -5.69479e-05 -4.85642e-05 -4.06106e-05 -3.34661e-05 -2.71799e-05 -2.16751e-05 -1.68187e-05 -1.25034e-05 -8.70432e-06 -5.50646e-06 -3.01062e-06 -1.17765e-06 2.06491e-07 1.2957e-06 2.0572e-06 2.30749e-06 2.38217e-06 2.55058e-06 2.83972e-06 3.29602e-06 3.88623e-06 4.5297e-06 5.16693e-06 5.77623e-06 6.35985e-06 6.9433e-06 -0.000119194 -0.00012156 -0.000123676 -0.000125091 -0.000125702 -0.000125493 -0.000124393 -0.000122254 -0.000118877 -0.000114393 -0.000108862 -0.000102282 -9.49057e-05 -8.69697e-05 -7.87976e-05 -7.04e-05 -6.16049e-05 -5.24398e-05 -4.33449e-05 -3.49773e-05 -2.76538e-05 -2.13428e-05 -1.5799e-05 -1.08152e-05 -6.40526e-06 -2.71846e-06 1.13491e-07 2.03617e-06 3.26976e-06 4.08962e-06 4.55281e-06 4.58866e-06 4.57806e-06 4.65626e-06 4.77043e-06 5.0942e-06 5.57104e-06 6.045e-06 6.44313e-06 6.78334e-06 7.10359e-06 -0.000126105 -0.00012912 -0.000131788 -0.000133745 -0.000134989 -0.000135471 -0.000134803 -0.000132633 -0.000128933 -0.000123919 -0.000117749 -0.000110478 -0.000102233 -9.32949e-05 -8.42685e-05 -7.52466e-05 -6.57789e-05 -5.55042e-05 -4.49198e-05 -3.5284e-05 -2.69564e-05 -1.9786e-05 -1.34946e-05 -7.82664e-06 -2.78856e-06 1.44147e-06 4.54476e-06 6.38485e-06 7.34746e-06 7.88033e-06 8.09813e-06 7.90551e-06 7.6416e-06 7.48727e-06 7.35783e-06 7.52793e-06 7.88147e-06 8.0995e-06 8.12736e-06 8.06474e-06 8.0163e-06 -0.000133497 -0.000137097 -0.000140295 -0.000142852 -0.000144732 -0.000145477 -0.000144557 -0.0001419 -0.000137644 -0.000131999 -0.000125174 -0.000117275 -0.0001083 -9.8512e-05 -8.87088e-05 -7.90312e-05 -6.88151e-05 -5.73604e-05 -4.55714e-05 -3.5018e-05 -2.58594e-05 -1.78885e-05 -1.08694e-05 -4.56404e-06 1.02274e-06 5.63266e-06 8.9157e-06 1.07322e-05 1.15298e-05 1.18406e-05 1.18387e-05 1.15305e-05 1.11634e-05 1.08974e-05 1.05698e-05 1.06038e-05 1.08044e-05 1.06841e-05 1.02347e-05 9.64073e-06 9.10867e-06 -0.000145571 -0.000149416 -0.000152547 -0.000154467 -0.000154769 -0.000153275 -0.000149997 -0.000145038 -0.000138621 -0.000131005 -0.00012239 -0.000112811 -0.000102457 -9.19812e-05 -8.16603e-05 -7.07905e-05 -5.85683e-05 -4.615e-05 -3.50236e-05 -2.52278e-05 -1.65937e-05 -8.90483e-06 -1.97905e-06 4.02945e-06 8.87987e-06 1.23569e-05 1.43877e-05 1.52477e-05 1.5509e-05 1.54325e-05 1.51241e-05 1.47871e-05 1.4459e-05 1.40649e-05 1.39904e-05 1.39023e-05 1.33978e-05 1.24986e-05 1.13752e-05 1.03158e-05 -0.000149697 -0.000154608 -0.000159076 -0.000162228 -0.000163738 -0.000163459 -0.000161261 -0.000157158 -0.000151306 -0.000144017 -0.000135541 -0.000126145 -0.000115989 -0.000105177 -9.41279e-05 -8.32959e-05 -7.20489e-05 -5.9643e-05 -4.71116e-05 -3.56014e-05 -2.52317e-05 -1.59751e-05 -7.74422e-06 -4.41573e-07 5.82172e-06 1.08811e-05 1.45754e-05 1.69357e-05 1.81182e-05 1.8603e-05 1.86552e-05 1.845e-05 1.82088e-05 1.78757e-05 1.75102e-05 1.72816e-05 1.68135e-05 1.58811e-05 1.4562e-05 1.30351e-05 1.15303e-05 -0.000158462 -0.000164141 -0.000168709 -0.000171488 -0.000172433 -0.000171445 -0.0001684 -0.000163349 -0.000156519 -0.000148262 -0.000138876 -0.000128657 -0.000117824 -0.000106495 -9.51135e-05 -8.40759e-05 -7.27826e-05 -6.06898e-05 -4.84368e-05 -3.67401e-05 -2.59607e-05 -1.62457e-05 -7.62425e-06 -7.64751e-08 6.36118e-06 1.15813e-05 1.55259e-05 1.82859e-05 2.00308e-05 2.10197e-05 2.13423e-05 2.12647e-05 2.11303e-05 2.08708e-05 2.05276e-05 2.00524e-05 1.9229e-05 1.79458e-05 1.62564e-05 1.44087e-05 1.2617e-05 -0.000167617 -0.000173613 -0.000177887 -0.000180126 -0.000180352 -0.000178535 -0.000174594 -0.000168562 -0.000160722 -0.00015146 -0.000141121 -0.000130016 -0.00011852 -0.000106951 -9.55799e-05 -8.44509e-05 -7.31128e-05 -6.13812e-05 -4.95668e-05 -3.80116e-05 -2.71625e-05 -1.73114e-05 -8.48803e-06 -7.60364e-07 5.82881e-06 1.12611e-05 1.55764e-05 1.88543e-05 2.12018e-05 2.26809e-05 2.33237e-05 2.34244e-05 2.34125e-05 2.32462e-05 2.28908e-05 2.22013e-05 2.10806e-05 1.95164e-05 1.75519e-05 1.54467e-05 1.34998e-05 1.21819e-05 -0.000176316 -0.000182294 -0.000186237 -0.000187922 -0.000187425 -0.000184768 -0.000179933 -0.000172938 -0.000164137 -0.000153908 -0.000142567 -0.00013062 -0.00011874 -0.000107203 -9.59346e-05 -8.47003e-05 -7.32646e-05 -6.17342e-05 -5.03245e-05 -3.91953e-05 -2.86038e-05 -1.88151e-05 -9.9691e-06 -2.14979e-06 4.63839e-06 1.03894e-05 1.51354e-05 1.89167e-05 2.17372e-05 2.36218e-05 2.46029e-05 2.49494e-05 2.51067e-05 2.50553e-05 2.47133e-05 2.38477e-05 2.24739e-05 2.06812e-05 1.85279e-05 1.62619e-05 1.42561e-05 1.30936e-05 -0.000184028 -0.000190001 -0.000193645 -0.000194885 -0.000193782 -0.000190336 -0.000184613 -0.000176746 -0.000167085 -0.000155982 -0.000143796 -0.000131386 -0.000119286 -0.000107615 -9.63094e-05 -8.51019e-05 -7.37831e-05 -6.24899e-05 -5.14066e-05 -4.06889e-05 -3.0433e-05 -2.07755e-05 -1.19501e-05 -4.0019e-06 2.99455e-06 9.05458e-06 1.4187e-05 1.83842e-05 2.16222e-05 2.38997e-05 2.52463e-05 2.59105e-05 2.63035e-05 2.64119e-05 2.60899e-05 2.5095e-05 2.35527e-05 2.16128e-05 1.93536e-05 1.70121e-05 1.5016e-05 1.36637e-05 1.20071e-05 -0.000191021 -0.000196911 -0.000200307 -0.000201222 -0.000199635 -0.000195485 -0.000188903 -0.000180283 -0.000169918 -0.000158101 -0.000145441 -0.000132817 -0.000120441 -0.000108475 -9.71041e-05 -8.61067e-05 -7.51756e-05 -6.4217e-05 -5.34659e-05 -4.30873e-05 -3.31235e-05 -2.36254e-05 -1.47838e-05 -6.65787e-06 6.4977e-07 7.07844e-06 1.25969e-05 1.71945e-05 2.08514e-05 2.35491e-05 2.53155e-05 2.6359e-05 2.70372e-05 2.73263e-05 2.70397e-05 2.59731e-05 2.43899e-05 2.24277e-05 2.01677e-05 1.78674e-05 1.59616e-05 1.40862e-05 1.13343e-05 8.90512e-06 -0.000197505 -0.000203321 -0.000206565 -0.000207261 -0.000205271 -0.000200527 -0.000193293 -0.000184007 -0.00017299 -0.000160657 -0.000147832 -0.000135082 -0.000122467 -0.000110269 -9.87955e-05 -8.79842e-05 -7.75073e-05 -6.70451e-05 -5.66987e-05 -4.66715e-05 -3.69405e-05 -2.75609e-05 -1.86605e-05 -1.03391e-05 -2.64587e-06 4.23827e-06 1.02108e-05 1.52842e-05 1.94182e-05 2.25965e-05 2.48428e-05 2.62986e-05 2.72764e-05 2.77609e-05 2.75081e-05 2.65032e-05 2.50282e-05 2.31692e-05 2.10349e-05 1.89516e-05 1.71233e-05 1.46087e-05 1.11329e-05 8.32876e-06 7.22699e-06 7.46858e-06 -0.000203619 -0.000209533 -0.000212783 -0.000213365 -0.000211095 -0.000205936 -0.000198192 -0.000188314 -0.000176753 -0.000164166 -0.000151278 -0.000138442 -0.000125709 -0.000113403 -0.000101861 -9.10889e-05 -8.08599e-05 -7.08881e-05 -6.10232e-05 -5.14068e-05 -4.19013e-05 -3.25817e-05 -2.36296e-05 -1.50741e-05 -6.96868e-06 4.26561e-07 6.93833e-06 1.25802e-05 1.7289e-05 2.10207e-05 2.379e-05 2.5716e-05 2.70438e-05 2.77622e-05 2.76082e-05 2.67927e-05 2.5526e-05 2.38467e-05 2.19176e-05 2.01236e-05 1.83587e-05 1.55875e-05 1.18666e-05 8.51645e-06 7.00344e-06 -0.000209467 -0.000215684 -0.00021914 -0.000219785 -0.000217451 -0.000212095 -0.000204 -0.000193652 -0.000181744 -0.000169074 -0.000156109 -0.000143167 -0.000130362 -0.000117993 -0.000106393 -9.55574e-05 -8.53149e-05 -7.54931e-05 -6.59552e-05 -5.67388e-05 -4.76435e-05 -3.85226e-05 -2.958e-05 -2.08416e-05 -1.23053e-05 -4.31469e-06 2.83842e-06 9.10022e-06 1.44254e-05 1.87476e-05 2.20956e-05 2.46028e-05 2.64197e-05 2.74901e-05 2.75858e-05 2.69986e-05 2.59323e-05 2.44294e-05 2.26611e-05 2.1018e-05 1.93235e-05 1.67366e-05 1.32209e-05 9.36382e-06 7.26643e-06 7.22352e-06 -0.000215117 -0.000221821 -0.000225688 -0.00022665 -0.000224532 -0.000219205 -0.000210963 -0.0002004 -0.000188326 -0.000175588 -0.000162518 -0.000149414 -0.000136485 -0.000124028 -0.00011232 -0.000101388 -9.10131e-05 -8.1111e-05 -7.16078e-05 -6.24761e-05 -5.36113e-05 -4.47124e-05 -3.58636e-05 -2.70749e-05 -1.82856e-05 -9.83226e-06 -2.0512e-06 4.84188e-06 1.07986e-05 1.57783e-05 1.98159e-05 2.30267e-05 2.54937e-05 2.70709e-05 2.75615e-05 2.71989e-05 2.63116e-05 2.4958e-05 2.32698e-05 2.16344e-05 1.99215e-05 1.74247e-05 1.41904e-05 1.01505e-05 7.64782e-06 7.48446e-06 -0.000220592 -0.000227971 -0.000232459 -0.000233927 -0.00023218 -0.000227118 -0.000219123 -0.000208739 -0.000196687 -0.000183838 -0.000170602 -0.000157276 -0.000144178 -0.00013157 -0.00011962 -0.000108457 -9.78818e-05 -8.78066e-05 -7.81494e-05 -6.87808e-05 -5.96999e-05 -5.07166e-05 -4.17918e-05 -3.29387e-05 -2.41322e-05 -1.55469e-05 -7.42147e-06 -2.83106e-08 6.56726e-06 1.23137e-05 1.72024e-05 2.12102e-05 2.43804e-05 2.65306e-05 2.74631e-05 2.74074e-05 2.67379e-05 2.55205e-05 2.38612e-05 2.21085e-05 2.02242e-05 1.75802e-05 1.42444e-05 1.04107e-05 8.16146e-06 -0.000234075 -0.000239218 -0.000241187 -0.000239914 -0.000235456 -0.000228155 -0.000218415 -0.000206688 -0.000193768 -0.000180316 -0.00016671 -0.000153308 -0.00014039 -0.000128068 -0.000116509 -0.00010561 -9.52377e-05 -8.51992e-05 -7.5327e-05 -6.57106e-05 -5.63044e-05 -4.70509e-05 -3.79853e-05 -2.91142e-05 -2.05108e-05 -1.23041e-05 -4.65094e-06 2.41497e-06 8.84415e-06 1.45397e-05 1.93651e-05 2.31883e-05 2.58658e-05 2.7304e-05 2.76627e-05 2.72793e-05 2.61985e-05 2.4538e-05 2.25922e-05 2.03463e-05 1.72556e-05 1.36955e-05 1.04685e-05 8.79919e-06 8.84848e-06 -0.000230984 -0.000239774 -0.000245458 -0.000247915 -0.00024734 -0.000243834 -0.00023755 -0.000228748 -0.000217708 -0.000205014 -0.000191412 -0.00017746 -0.000163589 -0.000150173 -0.000137401 -0.00012538 -0.000114021 -0.000103134 -9.24744e-05 -8.19549e-05 -7.16728e-05 -6.16125e-05 -5.17838e-05 -4.22618e-05 -3.30361e-05 -2.41885e-05 -1.58514e-05 -8.08033e-06 -8.1906e-07 5.9759e-06 1.21604e-05 1.76169e-05 2.20842e-05 2.53151e-05 2.72793e-05 2.80963e-05 2.80331e-05 2.71009e-05 2.54787e-05 2.33063e-05 2.05435e-05 1.70664e-05 1.36183e-05 1.10967e-05 9.88151e-06 -0.000235447 -0.000244688 -0.000250911 -0.000254019 -0.000254184 -0.000251639 -0.000246512 -0.000238839 -0.000228751 -0.000216612 -0.000203108 -0.000188895 -0.000174544 -0.000160582 -0.000147333 -0.00013487 -0.000123082 -0.000111755 -0.000100469 -8.90827e-05 -7.78885e-05 -6.69747e-05 -5.63544e-05 -4.6085e-05 -3.62339e-05 -2.68526e-05 -1.80623e-05 -1.01527e-05 -2.85805e-06 4.11116e-06 1.05325e-05 1.63332e-05 2.13141e-05 2.50649e-05 2.75119e-05 2.87583e-05 2.89983e-05 2.82254e-05 2.66533e-05 2.43271e-05 2.12597e-05 1.79125e-05 1.47929e-05 1.24938e-05 1.14556e-05 1.16137e-05 -0.000239109 -0.000248834 -0.000255764 -0.000259632 -0.000260539 -0.000258798 -0.000254588 -0.000247926 -0.000238772 -0.000227381 -0.000214213 -0.000199899 -0.000185244 -0.000170911 -0.000157295 -0.000144484 -0.000132308 -0.000120474 -0.000108509 -9.6197e-05 -8.38544e-05 -7.19783e-05 -6.05811e-05 -4.9476e-05 -3.8881e-05 -2.88776e-05 -1.9514e-05 -1.12547e-05 -3.75946e-06 3.38788e-06 9.91667e-06 1.57177e-05 2.09215e-05 2.50691e-05 2.79438e-05 2.95999e-05 3.01437e-05 2.95555e-05 2.79669e-05 2.55014e-05 2.25135e-05 1.96076e-05 1.68754e-05 1.45371e-05 1.332e-05 -0.000241981 -0.000252294 -0.000260037 -0.000264708 -0.000266338 -0.000265286 -0.000261787 -0.000255768 -0.000247237 -0.000236393 -0.000223598 -0.000209445 -0.000194801 -0.000180305 -0.000166351 -0.000153061 -0.000140299 -0.000127737 -0.000114964 -0.000101711 -8.83257e-05 -7.56654e-05 -6.36733e-05 -5.19133e-05 -4.06146e-05 -2.99933e-05 -2.01945e-05 -1.14705e-05 -3.51449e-06 3.8333e-06 1.03323e-05 1.59876e-05 2.10862e-05 2.53401e-05 2.85329e-05 3.06344e-05 3.15616e-05 3.1192e-05 2.96158e-05 2.70722e-05 2.42291e-05 2.1624e-05 1.91832e-05 1.69579e-05 1.5485e-05 -0.000244058 -0.000254869 -0.000263303 -0.000268763 -0.000271092 -0.000270615 -0.000267648 -0.000262135 -0.000254028 -0.000243433 -0.000230836 -0.000217025 -0.000202678 -0.000188127 -0.000173704 -0.000159706 -0.000146194 -0.00013288 -0.000119332 -0.000105267 -9.10587e-05 -7.76449e-05 -6.50681e-05 -5.28967e-05 -4.11248e-05 -2.98536e-05 -1.94351e-05 -1.02249e-05 -1.93484e-06 5.46227e-06 1.17545e-05 1.70144e-05 2.16424e-05 2.57244e-05 2.90986e-05 3.15918e-05 3.29504e-05 3.29241e-05 3.15153e-05 2.90827e-05 2.63658e-05 2.39174e-05 2.16135e-05 1.94142e-05 1.768e-05 -0.000245285 -0.000256459 -0.00026534 -0.000271263 -0.00027408 -0.000274063 -0.000271466 -0.000266334 -0.000258624 -0.000248374 -0.000236014 -0.00022248 -0.000208426 -0.000193825 -0.000178865 -0.000164058 -0.000149678 -0.000135562 -0.000121318 -0.000106628 -9.18718e-05 -7.78261e-05 -6.46681e-05 -5.22004e-05 -4.01159e-05 -2.81436e-05 -1.70976e-05 -7.56987e-06 7.07285e-07 7.7172e-06 1.35307e-05 1.82798e-05 2.23608e-05 2.60917e-05 2.94164e-05 3.20715e-05 3.38184e-05 3.43687e-05 3.34015e-05 3.1275e-05 2.87819e-05 2.64363e-05 2.41298e-05 2.1841e-05 1.98626e-05 -0.000245578 -0.000256975 -0.000266094 -0.000272188 -0.000275208 -0.000275434 -0.000273048 -0.00026816 -0.000260757 -0.000250857 -0.000238801 -0.000225549 -0.000211658 -0.000196891 -0.000181369 -0.000165807 -0.000150638 -0.000135742 -0.000120793 -0.000105604 -9.06e-05 -7.62906e-05 -6.27561e-05 -4.98259e-05 -3.70097e-05 -2.44628e-05 -1.33765e-05 -4.17569e-06 3.65214e-06 1.01653e-05 1.54582e-05 1.97171e-05 2.33113e-05 2.6656e-05 2.9773e-05 3.24569e-05 3.44526e-05 3.54899e-05 3.51866e-05 3.35868e-05 3.14405e-05 2.92168e-05 2.68714e-05 2.44423e-05 2.21947e-05 2.07618e-05 2.03888e-05 -0.000244861 -0.000256289 -0.000265398 -0.000271523 -0.000274603 -0.000274902 -0.000272567 -0.000267719 -0.00026045 -0.000250819 -0.000239109 -0.000226111 -0.00021223 -0.000197169 -0.000181139 -0.000165003 -0.000149197 -0.000133592 -0.000118027 -0.000102642 -8.76677e-05 -7.31846e-05 -5.91212e-05 -4.5393e-05 -3.21623e-05 -2.00445e-05 -9.58839e-06 -8.09915e-07 6.59215e-06 1.26934e-05 1.75696e-05 2.14184e-05 2.46687e-05 2.77678e-05 3.07671e-05 3.34675e-05 3.56121e-05 3.68811e-05 3.70364e-05 3.60857e-05 3.43838e-05 3.23471e-05 3.00517e-05 2.74802e-05 2.4847e-05 2.28142e-05 2.20701e-05 2.21388e-05 2.26187e-05 2.31494e-05 -0.000243116 -0.000254382 -0.000263271 -0.000269272 -0.00027227 -0.000272482 -0.000270053 -0.000265123 -0.000257839 -0.000248351 -0.00023697 -0.000224237 -0.000210223 -0.000194762 -0.000178333 -0.000161798 -0.000145495 -0.00012941 -0.000113685 -9.84177e-05 -8.3407e-05 -6.85062e-05 -5.37452e-05 -3.97507e-05 -2.70412e-05 -1.58266e-05 -6.04285e-06 2.4338e-06 9.5823e-06 1.54102e-05 1.99876e-05 2.35541e-05 2.66343e-05 2.96374e-05 3.25867e-05 3.52704e-05 3.7512e-05 3.89965e-05 3.94936e-05 3.90144e-05 3.7707e-05 3.58491e-05 3.35844e-05 3.09079e-05 2.79911e-05 2.54862e-05 2.44446e-05 2.43489e-05 2.46394e-05 2.50428e-05 -0.000240342 -0.000251287 -0.000259742 -0.000265392 -0.000268113 -0.000268131 -0.000265586 -0.000260573 -0.000253293 -0.000243984 -0.000232869 -0.000220181 -0.000205855 -0.000189982 -0.000173284 -0.00015646 -0.000139874 -0.000123802 -0.000108388 -9.34261e-05 -7.8375e-05 -6.30096e-05 -4.80561e-05 -3.44611e-05 -2.24434e-05 -1.18901e-05 -2.55538e-06 5.71505e-06 1.27544e-05 1.84829e-05 2.29577e-05 2.63886e-05 2.93137e-05 3.2236e-05 3.51807e-05 3.79283e-05 4.03163e-05 4.201e-05 4.27668e-05 4.25722e-05 4.15045e-05 3.9751e-05 3.74628e-05 3.47298e-05 3.17714e-05 2.91805e-05 2.78317e-05 2.74141e-05 2.74089e-05 -0.000236522 -0.000247063 -0.000254892 -0.000259932 -0.000262228 -0.000262025 -0.000259401 -0.000254419 -0.000247262 -0.000238085 -0.000227015 -0.00021414 -0.000199453 -0.000183302 -0.000166442 -0.00014951 -0.000133108 -0.000117495 -0.000102605 -8.80415e-05 -7.30937e-05 -5.7586e-05 -4.29396e-05 -2.98991e-05 -1.84094e-05 -8.22255e-06 8.95424e-07 9.03103e-06 1.60578e-05 2.18542e-05 2.63913e-05 2.98102e-05 3.26247e-05 3.54694e-05 3.84641e-05 4.1396e-05 4.40101e-05 4.59129e-05 4.68234e-05 4.66966e-05 4.56747e-05 4.39382e-05 4.15965e-05 3.88382e-05 3.59867e-05